V -t * -v 1.0a5 -a 0
A -t * -n 1 -p 0 -o 0x7fffffff -c 30 -a 1
A -t * -h 1 -m 1073741823 -s 0
c -t * -i 1 -n Blue
c -t * -i 2 -n Red
n -t * -a 4 -s 4 -S UP -v circle -c black -i black
n -t * -a 0 -s 0 -S UP -v circle -c black -i black
n -t * -a 5 -s 5 -S UP -v circle -c black -i black
n -t * -a 1 -s 1 -S UP -v circle -c black -i black
n -t * -a 2 -s 2 -S UP -v circle -c black -i black
n -t * -a 3 -s 3 -S UP -v circle -c black -i black
l -t * -s 0 -d 1 -S UP -r 300000 -D 0.01 -c black -o right
X -t * -n 6 -r 0.5Mb -D 20ms -o left
L -t * -s 6 -d 1 -o up
L -t * -s 6 -d 2 -o down
L -t * -s 6 -d 3 -o up
L -t * -s 6 -d 4 -o down
L -t * -s 6 -d 5 -o up
+ -t 0.1 -s 0 -d 1 -p tcp -e 40 -c 1 -i 0 -a 1 -x {0.0 2.0 0 ------- null}
- -t 0.1 -s 0 -d 1 -p tcp -e 40 -c 1 -i 0 -a 1 -x {0.0 2.0 0 ------- null}
h -t 0.1 -s 0 -d 1 -p tcp -e 40 -c 1 -i 0 -a 1 -x {0.0 2.0 -1 ------- null}
r -t 0.111066666666667 -s 0 -d 1 -p tcp -e 40 -c 1 -i 0 -a 1 -x {0.0 2.0 0 ------- null}
h -t 0.111066666666667 -s 1 -d 6 -p tcp -e 40 -c 1 -i 0 -a 1 -x {0.0 2.0 0 ------- null}
+ -t 0.131066666666667 -s 1 -d 6 -p tcp -e 40 -c 1 -i 0 -a 1 -x {0.0 2.0 0 ------- null}
- -t 0.131066666666667 -s 1 -d 6 -p tcp -e 40 -c 1 -i 0 -a 1 -x {0.0 2.0 0 ------- null}
h -t 0.131066666666667 -s 1 -d 6 -p tcp -e 40 -c 1 -i 0 -a 1 -x {0.0 2.0 -1 ------- null}
d -t 0.131070666666667 -s 5 -d 6 -p tcp -e 40 -c 1 -i 0 -a 1 -x {0.0 2.0 0 ------- null}
d -t 0.131070666666667 -s 4 -d 6 -p tcp -e 40 -c 1 -i 0 -a 1 -x {0.0 2.0 0 ------- null}
d -t 0.131070666666667 -s 3 -d 6 -p tcp -e 40 -c 1 -i 0 -a 1 -x {0.0 2.0 0 ------- null}
r -t 0.151070666666667 -s 6 -d 2 -p tcp -e 40 -c 1 -i 0 -a 1 -x {0.0 2.0 0 ------- null}
h -t 0.151070666666667 -s 2 -d 6 -p ack -e 40 -c 1 -i 1 -a 1 -x {2.0 0.0 0 ------- null}
+ -t 0.171070666666667 -s 2 -d 6 -p ack -e 40 -c 1 -i 1 -a 1 -x {2.0 0.0 0 ------- null}
- -t 0.171070666666667 -s 2 -d 6 -p ack -e 40 -c 1 -i 1 -a 1 -x {2.0 0.0 0 ------- null}
h -t 0.171070666666667 -s 2 -d 6 -p ack -e 40 -c 1 -i 1 -a 1 -x {2.0 0.0 -1 ------- null}
d -t 0.171074666666667 -s 5 -d 6 -p ack -e 40 -c 1 -i 1 -a 1 -x {2.0 0.0 0 ------- null}
d -t 0.171074666666667 -s 4 -d 6 -p ack -e 40 -c 1 -i 1 -a 1 -x {2.0 0.0 0 ------- null}
d -t 0.171074666666667 -s 3 -d 6 -p ack -e 40 -c 1 -i 1 -a 1 -x {2.0 0.0 0 ------- null}
r -t 0.191074666666667 -s 6 -d 1 -p ack -e 40 -c 1 -i 1 -a 1 -x {2.0 0.0 0 ------- null}
+ -t 0.191074666666667 -s 1 -d 0 -p ack -e 40 -c 1 -i 1 -a 1 -x {2.0 0.0 0 ------- null}
- -t 0.191074666666667 -s 1 -d 0 -p ack -e 40 -c 1 -i 1 -a 1 -x {2.0 0.0 0 ------- null}
h -t 0.191074666666667 -s 1 -d 0 -p ack -e 40 -c 1 -i 1 -a 1 -x {2.0 0.0 -1 ------- null}
r -t 0.202141333333333 -s 1 -d 0 -p ack -e 40 -c 1 -i 1 -a 1 -x {2.0 0.0 0 ------- null}
+ -t 0.202141333333333 -s 0 -d 1 -p tcp -e 1040 -c 1 -i 2 -a 1 -x {0.0 2.0 1 ------- null}
- -t 0.202141333333333 -s 0 -d 1 -p tcp -e 1040 -c 1 -i 2 -a 1 -x {0.0 2.0 1 ------- null}
h -t 0.202141333333333 -s 0 -d 1 -p tcp -e 1040 -c 1 -i 2 -a 1 -x {0.0 2.0 -1 ------- null}
+ -t 0.202141333333333 -s 0 -d 1 -p tcp -e 1040 -c 1 -i 3 -a 1 -x {0.0 2.0 2 ------- null}
- -t 0.229874666666667 -s 0 -d 1 -p tcp -e 1040 -c 1 -i 3 -a 1 -x {0.0 2.0 2 ------- null}
h -t 0.229874666666667 -s 0 -d 1 -p tcp -e 1040 -c 1 -i 3 -a 1 -x {0.0 2.0 -1 ------- null}
r -t 0.239874666666667 -s 0 -d 1 -p tcp -e 1040 -c 1 -i 2 -a 1 -x {0.0 2.0 1 ------- null}
h -t 0.239874666666667 -s 1 -d 6 -p tcp -e 1040 -c 1 -i 2 -a 1 -x {0.0 2.0 1 ------- null}
+ -t 0.259874666666667 -s 1 -d 6 -p tcp -e 1040 -c 1 -i 2 -a 1 -x {0.0 2.0 1 ------- null}
- -t 0.259874666666667 -s 1 -d 6 -p tcp -e 1040 -c 1 -i 2 -a 1 -x {0.0 2.0 1 ------- null}
h -t 0.259874666666667 -s 1 -d 6 -p tcp -e 1040 -c 1 -i 2 -a 1 -x {0.0 2.0 -1 ------- null}
d -t 0.259878666666667 -s 5 -d 6 -p tcp -e 1040 -c 1 -i 2 -a 1 -x {0.0 2.0 1 ------- null}
d -t 0.259878666666667 -s 4 -d 6 -p tcp -e 1040 -c 1 -i 2 -a 1 -x {0.0 2.0 1 ------- null}
d -t 0.259878666666667 -s 3 -d 6 -p tcp -e 1040 -c 1 -i 2 -a 1 -x {0.0 2.0 1 ------- null}
r -t 0.267608 -s 0 -d 1 -p tcp -e 1040 -c 1 -i 3 -a 1 -x {0.0 2.0 2 ------- null}
h -t 0.267608 -s 1 -d 6 -p tcp -e 1040 -c 1 -i 3 -a 1 -x {0.0 2.0 2 ------- null}
r -t 0.279878666666667 -s 6 -d 2 -p tcp -e 1040 -c 1 -i 2 -a 1 -x {0.0 2.0 1 ------- null}
+ -t 0.287608 -s 1 -d 6 -p tcp -e 1040 -c 1 -i 3 -a 1 -x {0.0 2.0 2 ------- null}
- -t 0.287608 -s 1 -d 6 -p tcp -e 1040 -c 1 -i 3 -a 1 -x {0.0 2.0 2 ------- null}
h -t 0.287608 -s 1 -d 6 -p tcp -e 1040 -c 1 -i 3 -a 1 -x {0.0 2.0 -1 ------- null}
d -t 0.287612 -s 5 -d 6 -p tcp -e 1040 -c 1 -i 3 -a 1 -x {0.0 2.0 2 ------- null}
d -t 0.287612 -s 4 -d 6 -p tcp -e 1040 -c 1 -i 3 -a 1 -x {0.0 2.0 2 ------- null}
d -t 0.287612 -s 3 -d 6 -p tcp -e 1040 -c 1 -i 3 -a 1 -x {0.0 2.0 2 ------- null}
r -t 0.307612 -s 6 -d 2 -p tcp -e 1040 -c 1 -i 3 -a 1 -x {0.0 2.0 2 ------- null}
h -t 0.307612 -s 2 -d 6 -p ack -e 40 -c 1 -i 4 -a 1 -x {2.0 0.0 2 ------- null}
+ -t 0.327612 -s 2 -d 6 -p ack -e 40 -c 1 -i 4 -a 1 -x {2.0 0.0 2 ------- null}
- -t 0.327612 -s 2 -d 6 -p ack -e 40 -c 1 -i 4 -a 1 -x {2.0 0.0 2 ------- null}
h -t 0.327612 -s 2 -d 6 -p ack -e 40 -c 1 -i 4 -a 1 -x {2.0 0.0 -1 ------- null}
d -t 0.327616 -s 5 -d 6 -p ack -e 40 -c 1 -i 4 -a 1 -x {2.0 0.0 2 ------- null}
d -t 0.327616 -s 4 -d 6 -p ack -e 40 -c 1 -i 4 -a 1 -x {2.0 0.0 2 ------- null}
d -t 0.327616 -s 3 -d 6 -p ack -e 40 -c 1 -i 4 -a 1 -x {2.0 0.0 2 ------- null}
r -t 0.347616 -s 6 -d 1 -p ack -e 40 -c 1 -i 4 -a 1 -x {2.0 0.0 2 ------- null}
+ -t 0.347616 -s 1 -d 0 -p ack -e 40 -c 1 -i 4 -a 1 -x {2.0 0.0 2 ------- null}
- -t 0.347616 -s 1 -d 0 -p ack -e 40 -c 1 -i 4 -a 1 -x {2.0 0.0 2 ------- null}
h -t 0.347616 -s 1 -d 0 -p ack -e 40 -c 1 -i 4 -a 1 -x {2.0 0.0 -1 ------- null}
r -t 0.358682666666667 -s 1 -d 0 -p ack -e 40 -c 1 -i 4 -a 1 -x {2.0 0.0 2 ------- null}
+ -t 0.358682666666667 -s 0 -d 1 -p tcp -e 1040 -c 1 -i 5 -a 1 -x {0.0 2.0 3 ------- null}
- -t 0.358682666666667 -s 0 -d 1 -p tcp -e 1040 -c 1 -i 5 -a 1 -x {0.0 2.0 3 ------- null}
h -t 0.358682666666667 -s 0 -d 1 -p tcp -e 1040 -c 1 -i 5 -a 1 -x {0.0 2.0 -1 ------- null}
+ -t 0.358682666666667 -s 0 -d 1 -p tcp -e 1040 -c 1 -i 6 -a 1 -x {0.0 2.0 4 ------- null}
+ -t 0.358682666666667 -s 0 -d 1 -p tcp -e 1040 -c 1 -i 7 -a 1 -x {0.0 2.0 5 ------- null}
- -t 0.386416 -s 0 -d 1 -p tcp -e 1040 -c 1 -i 6 -a 1 -x {0.0 2.0 4 ------- null}
h -t 0.386416 -s 0 -d 1 -p tcp -e 1040 -c 1 -i 6 -a 1 -x {0.0 2.0 -1 ------- null}
r -t 0.396416 -s 0 -d 1 -p tcp -e 1040 -c 1 -i 5 -a 1 -x {0.0 2.0 3 ------- null}
h -t 0.396416 -s 1 -d 6 -p tcp -e 1040 -c 1 -i 5 -a 1 -x {0.0 2.0 3 ------- null}
- -t 0.414149333333333 -s 0 -d 1 -p tcp -e 1040 -c 1 -i 7 -a 1 -x {0.0 2.0 5 ------- null}
h -t 0.414149333333333 -s 0 -d 1 -p tcp -e 1040 -c 1 -i 7 -a 1 -x {0.0 2.0 -1 ------- null}
+ -t 0.416416 -s 1 -d 6 -p tcp -e 1040 -c 1 -i 5 -a 1 -x {0.0 2.0 3 ------- null}
- -t 0.416416 -s 1 -d 6 -p tcp -e 1040 -c 1 -i 5 -a 1 -x {0.0 2.0 3 ------- null}
h -t 0.416416 -s 1 -d 6 -p tcp -e 1040 -c 1 -i 5 -a 1 -x {0.0 2.0 -1 ------- null}
d -t 0.41642 -s 5 -d 6 -p tcp -e 1040 -c 1 -i 5 -a 1 -x {0.0 2.0 3 ------- null}
d -t 0.41642 -s 4 -d 6 -p tcp -e 1040 -c 1 -i 5 -a 1 -x {0.0 2.0 3 ------- null}
d -t 0.41642 -s 3 -d 6 -p tcp -e 1040 -c 1 -i 5 -a 1 -x {0.0 2.0 3 ------- null}
r -t 0.424149333333333 -s 0 -d 1 -p tcp -e 1040 -c 1 -i 6 -a 1 -x {0.0 2.0 4 ------- null}
h -t 0.424149333333333 -s 1 -d 6 -p tcp -e 1040 -c 1 -i 6 -a 1 -x {0.0 2.0 4 ------- null}
r -t 0.43642 -s 6 -d 2 -p tcp -e 1040 -c 1 -i 5 -a 1 -x {0.0 2.0 3 ------- null}
+ -t 0.444149333333333 -s 1 -d 6 -p tcp -e 1040 -c 1 -i 6 -a 1 -x {0.0 2.0 4 ------- null}
- -t 0.444149333333333 -s 1 -d 6 -p tcp -e 1040 -c 1 -i 6 -a 1 -x {0.0 2.0 4 ------- null}
h -t 0.444149333333333 -s 1 -d 6 -p tcp -e 1040 -c 1 -i 6 -a 1 -x {0.0 2.0 -1 ------- null}
d -t 0.444153333333333 -s 5 -d 6 -p tcp -e 1040 -c 1 -i 6 -a 1 -x {0.0 2.0 4 ------- null}
d -t 0.444153333333333 -s 4 -d 6 -p tcp -e 1040 -c 1 -i 6 -a 1 -x {0.0 2.0 4 ------- null}
d -t 0.444153333333333 -s 3 -d 6 -p tcp -e 1040 -c 1 -i 6 -a 1 -x {0.0 2.0 4 ------- null}
r -t 0.451882666666667 -s 0 -d 1 -p tcp -e 1040 -c 1 -i 7 -a 1 -x {0.0 2.0 5 ------- null}
h -t 0.451882666666667 -s 1 -d 6 -p tcp -e 1040 -c 1 -i 7 -a 1 -x {0.0 2.0 5 ------- null}
r -t 0.464153333333333 -s 6 -d 2 -p tcp -e 1040 -c 1 -i 6 -a 1 -x {0.0 2.0 4 ------- null}
h -t 0.464153333333333 -s 2 -d 6 -p ack -e 40 -c 1 -i 8 -a 1 -x {2.0 0.0 4 ------- null}
+ -t 0.471882666666667 -s 1 -d 6 -p tcp -e 1040 -c 1 -i 7 -a 1 -x {0.0 2.0 5 ------- null}
- -t 0.471882666666667 -s 1 -d 6 -p tcp -e 1040 -c 1 -i 7 -a 1 -x {0.0 2.0 5 ------- null}
h -t 0.471882666666667 -s 1 -d 6 -p tcp -e 1040 -c 1 -i 7 -a 1 -x {0.0 2.0 -1 ------- null}
d -t 0.471886666666667 -s 5 -d 6 -p tcp -e 1040 -c 1 -i 7 -a 1 -x {0.0 2.0 5 ------- null}
d -t 0.471886666666667 -s 4 -d 6 -p tcp -e 1040 -c 1 -i 7 -a 1 -x {0.0 2.0 5 ------- null}
d -t 0.471886666666667 -s 3 -d 6 -p tcp -e 1040 -c 1 -i 7 -a 1 -x {0.0 2.0 5 ------- null}
+ -t 0.484153333333333 -s 2 -d 6 -p ack -e 40 -c 1 -i 8 -a 1 -x {2.0 0.0 4 ------- null}
- -t 0.484153333333333 -s 2 -d 6 -p ack -e 40 -c 1 -i 8 -a 1 -x {2.0 0.0 4 ------- null}
h -t 0.484153333333333 -s 2 -d 6 -p ack -e 40 -c 1 -i 8 -a 1 -x {2.0 0.0 -1 ------- null}
d -t 0.484157333333333 -s 5 -d 6 -p ack -e 40 -c 1 -i 8 -a 1 -x {2.0 0.0 4 ------- null}
d -t 0.484157333333333 -s 4 -d 6 -p ack -e 40 -c 1 -i 8 -a 1 -x {2.0 0.0 4 ------- null}
d -t 0.484157333333333 -s 3 -d 6 -p ack -e 40 -c 1 -i 8 -a 1 -x {2.0 0.0 4 ------- null}
r -t 0.491886666666667 -s 6 -d 2 -p tcp -e 1040 -c 1 -i 7 -a 1 -x {0.0 2.0 5 ------- null}
r -t 0.504157333333333 -s 6 -d 1 -p ack -e 40 -c 1 -i 8 -a 1 -x {2.0 0.0 4 ------- null}
+ -t 0.504157333333333 -s 1 -d 0 -p ack -e 40 -c 1 -i 8 -a 1 -x {2.0 0.0 4 ------- null}
- -t 0.504157333333333 -s 1 -d 0 -p ack -e 40 -c 1 -i 8 -a 1 -x {2.0 0.0 4 ------- null}
h -t 0.504157333333333 -s 1 -d 0 -p ack -e 40 -c 1 -i 8 -a 1 -x {2.0 0.0 -1 ------- null}
r -t 0.515224 -s 1 -d 0 -p ack -e 40 -c 1 -i 8 -a 1 -x {2.0 0.0 4 ------- null}
+ -t 0.515224 -s 0 -d 1 -p tcp -e 1040 -c 1 -i 9 -a 1 -x {0.0 2.0 6 ------- null}
- -t 0.515224 -s 0 -d 1 -p tcp -e 1040 -c 1 -i 9 -a 1 -x {0.0 2.0 6 ------- null}
h -t 0.515224 -s 0 -d 1 -p tcp -e 1040 -c 1 -i 9 -a 1 -x {0.0 2.0 -1 ------- null}
+ -t 0.515224 -s 0 -d 1 -p tcp -e 1040 -c 1 -i 10 -a 1 -x {0.0 2.0 7 ------- null}
+ -t 0.515224 -s 0 -d 1 -p tcp -e 1040 -c 1 -i 11 -a 1 -x {0.0 2.0 8 ------- null}
- -t 0.542957333333334 -s 0 -d 1 -p tcp -e 1040 -c 1 -i 10 -a 1 -x {0.0 2.0 7 ------- null}
h -t 0.542957333333334 -s 0 -d 1 -p tcp -e 1040 -c 1 -i 10 -a 1 -x {0.0 2.0 -1 ------- null}
r -t 0.552957333333333 -s 0 -d 1 -p tcp -e 1040 -c 1 -i 9 -a 1 -x {0.0 2.0 6 ------- null}
h -t 0.552957333333333 -s 1 -d 6 -p tcp -e 1040 -c 1 -i 9 -a 1 -x {0.0 2.0 6 ------- null}
- -t 0.570690666666667 -s 0 -d 1 -p tcp -e 1040 -c 1 -i 11 -a 1 -x {0.0 2.0 8 ------- null}
h -t 0.570690666666667 -s 0 -d 1 -p tcp -e 1040 -c 1 -i 11 -a 1 -x {0.0 2.0 -1 ------- null}
+ -t 0.572957333333333 -s 1 -d 6 -p tcp -e 1040 -c 1 -i 9 -a 1 -x {0.0 2.0 6 ------- null}
- -t 0.572957333333333 -s 1 -d 6 -p tcp -e 1040 -c 1 -i 9 -a 1 -x {0.0 2.0 6 ------- null}
h -t 0.572957333333333 -s 1 -d 6 -p tcp -e 1040 -c 1 -i 9 -a 1 -x {0.0 2.0 -1 ------- null}
d -t 0.572961333333333 -s 5 -d 6 -p tcp -e 1040 -c 1 -i 9 -a 1 -x {0.0 2.0 6 ------- null}
d -t 0.572961333333333 -s 4 -d 6 -p tcp -e 1040 -c 1 -i 9 -a 1 -x {0.0 2.0 6 ------- null}
d -t 0.572961333333333 -s 3 -d 6 -p tcp -e 1040 -c 1 -i 9 -a 1 -x {0.0 2.0 6 ------- null}
r -t 0.580690666666667 -s 0 -d 1 -p tcp -e 1040 -c 1 -i 10 -a 1 -x {0.0 2.0 7 ------- null}
h -t 0.580690666666667 -s 1 -d 6 -p tcp -e 1040 -c 1 -i 10 -a 1 -x {0.0 2.0 7 ------- null}
h -t 0.591886666666667 -s 2 -d 6 -p ack -e 40 -c 1 -i 12 -a 1 -x {2.0 0.0 5 ------- null}
r -t 0.592961333333333 -s 6 -d 2 -p tcp -e 1040 -c 1 -i 9 -a 1 -x {0.0 2.0 6 ------- null}
+ -t 0.600690666666667 -s 1 -d 6 -p tcp -e 1040 -c 1 -i 10 -a 1 -x {0.0 2.0 7 ------- null}
- -t 0.600690666666667 -s 1 -d 6 -p tcp -e 1040 -c 1 -i 10 -a 1 -x {0.0 2.0 7 ------- null}
h -t 0.600690666666667 -s 1 -d 6 -p tcp -e 1040 -c 1 -i 10 -a 1 -x {0.0 2.0 -1 ------- null}
d -t 0.600694666666667 -s 5 -d 6 -p tcp -e 1040 -c 1 -i 10 -a 1 -x {0.0 2.0 7 ------- null}
d -t 0.600694666666667 -s 4 -d 6 -p tcp -e 1040 -c 1 -i 10 -a 1 -x {0.0 2.0 7 ------- null}
d -t 0.600694666666667 -s 3 -d 6 -p tcp -e 1040 -c 1 -i 10 -a 1 -x {0.0 2.0 7 ------- null}
r -t 0.608424 -s 0 -d 1 -p tcp -e 1040 -c 1 -i 11 -a 1 -x {0.0 2.0 8 ------- null}
h -t 0.608424 -s 1 -d 6 -p tcp -e 1040 -c 1 -i 11 -a 1 -x {0.0 2.0 8 ------- null}
+ -t 0.611886666666667 -s 2 -d 6 -p ack -e 40 -c 1 -i 12 -a 1 -x {2.0 0.0 5 ------- null}
- -t 0.611886666666667 -s 2 -d 6 -p ack -e 40 -c 1 -i 12 -a 1 -x {2.0 0.0 5 ------- null}
h -t 0.611886666666667 -s 2 -d 6 -p ack -e 40 -c 1 -i 12 -a 1 -x {2.0 0.0 -1 ------- null}
d -t 0.611890666666667 -s 5 -d 6 -p ack -e 40 -c 1 -i 12 -a 1 -x {2.0 0.0 5 ------- null}
d -t 0.611890666666667 -s 4 -d 6 -p ack -e 40 -c 1 -i 12 -a 1 -x {2.0 0.0 5 ------- null}
d -t 0.611890666666667 -s 3 -d 6 -p ack -e 40 -c 1 -i 12 -a 1 -x {2.0 0.0 5 ------- null}
r -t 0.620694666666667 -s 6 -d 2 -p tcp -e 1040 -c 1 -i 10 -a 1 -x {0.0 2.0 7 ------- null}
h -t 0.620694666666667 -s 2 -d 6 -p ack -e 40 -c 1 -i 13 -a 1 -x {2.0 0.0 7 ------- null}
+ -t 0.628424 -s 1 -d 6 -p tcp -e 1040 -c 1 -i 11 -a 1 -x {0.0 2.0 8 ------- null}
- -t 0.628424 -s 1 -d 6 -p tcp -e 1040 -c 1 -i 11 -a 1 -x {0.0 2.0 8 ------- null}
h -t 0.628424 -s 1 -d 6 -p tcp -e 1040 -c 1 -i 11 -a 1 -x {0.0 2.0 -1 ------- null}
d -t 0.628428 -s 5 -d 6 -p tcp -e 1040 -c 1 -i 11 -a 1 -x {0.0 2.0 8 ------- null}
d -t 0.628428 -s 4 -d 6 -p tcp -e 1040 -c 1 -i 11 -a 1 -x {0.0 2.0 8 ------- null}
d -t 0.628428 -s 3 -d 6 -p tcp -e 1040 -c 1 -i 11 -a 1 -x {0.0 2.0 8 ------- null}
r -t 0.631890666666667 -s 6 -d 1 -p ack -e 40 -c 1 -i 12 -a 1 -x {2.0 0.0 5 ------- null}
+ -t 0.631890666666667 -s 1 -d 0 -p ack -e 40 -c 1 -i 12 -a 1 -x {2.0 0.0 5 ------- null}
- -t 0.631890666666667 -s 1 -d 0 -p ack -e 40 -c 1 -i 12 -a 1 -x {2.0 0.0 5 ------- null}
h -t 0.631890666666667 -s 1 -d 0 -p ack -e 40 -c 1 -i 12 -a 1 -x {2.0 0.0 -1 ------- null}
+ -t 0.640694666666667 -s 2 -d 6 -p ack -e 40 -c 1 -i 13 -a 1 -x {2.0 0.0 7 ------- null}
- -t 0.640694666666667 -s 2 -d 6 -p ack -e 40 -c 1 -i 13 -a 1 -x {2.0 0.0 7 ------- null}
h -t 0.640694666666667 -s 2 -d 6 -p ack -e 40 -c 1 -i 13 -a 1 -x {2.0 0.0 -1 ------- null}
d -t 0.640698666666667 -s 5 -d 6 -p ack -e 40 -c 1 -i 13 -a 1 -x {2.0 0.0 7 ------- null}
d -t 0.640698666666667 -s 4 -d 6 -p ack -e 40 -c 1 -i 13 -a 1 -x {2.0 0.0 7 ------- null}
d -t 0.640698666666667 -s 3 -d 6 -p ack -e 40 -c 1 -i 13 -a 1 -x {2.0 0.0 7 ------- null}
r -t 0.642957333333333 -s 1 -d 0 -p ack -e 40 -c 1 -i 12 -a 1 -x {2.0 0.0 5 ------- null}
+ -t 0.642957333333333 -s 0 -d 1 -p tcp -e 1040 -c 1 -i 14 -a 1 -x {0.0 2.0 9 ------- null}
- -t 0.642957333333333 -s 0 -d 1 -p tcp -e 1040 -c 1 -i 14 -a 1 -x {0.0 2.0 9 ------- null}
h -t 0.642957333333333 -s 0 -d 1 -p tcp -e 1040 -c 1 -i 14 -a 1 -x {0.0 2.0 -1 ------- null}
+ -t 0.642957333333333 -s 0 -d 1 -p tcp -e 1040 -c 1 -i 15 -a 1 -x {0.0 2.0 10 ------- null}
r -t 0.648428 -s 6 -d 2 -p tcp -e 1040 -c 1 -i 11 -a 1 -x {0.0 2.0 8 ------- null}
r -t 0.660698666666667 -s 6 -d 1 -p ack -e 40 -c 1 -i 13 -a 1 -x {2.0 0.0 7 ------- null}
+ -t 0.660698666666667 -s 1 -d 0 -p ack -e 40 -c 1 -i 13 -a 1 -x {2.0 0.0 7 ------- null}
- -t 0.660698666666667 -s 1 -d 0 -p ack -e 40 -c 1 -i 13 -a 1 -x {2.0 0.0 7 ------- null}
h -t 0.660698666666667 -s 1 -d 0 -p ack -e 40 -c 1 -i 13 -a 1 -x {2.0 0.0 -1 ------- null}
- -t 0.670690666666667 -s 0 -d 1 -p tcp -e 1040 -c 1 -i 15 -a 1 -x {0.0 2.0 10 ------- null}
h -t 0.670690666666667 -s 0 -d 1 -p tcp -e 1040 -c 1 -i 15 -a 1 -x {0.0 2.0 -1 ------- null}
r -t 0.671765333333334 -s 1 -d 0 -p ack -e 40 -c 1 -i 13 -a 1 -x {2.0 0.0 7 ------- null}
+ -t 0.671765333333334 -s 0 -d 1 -p tcp -e 1040 -c 1 -i 16 -a 1 -x {0.0 2.0 11 ------- null}
+ -t 0.671765333333334 -s 0 -d 1 -p tcp -e 1040 -c 1 -i 17 -a 1 -x {0.0 2.0 12 ------- null}
+ -t 0.671765333333334 -s 0 -d 1 -p tcp -e 1040 -c 1 -i 18 -a 1 -x {0.0 2.0 13 ------- null}
r -t 0.680690666666667 -s 0 -d 1 -p tcp -e 1040 -c 1 -i 14 -a 1 -x {0.0 2.0 9 ------- null}
h -t 0.680690666666667 -s 1 -d 6 -p tcp -e 1040 -c 1 -i 14 -a 1 -x {0.0 2.0 9 ------- null}
- -t 0.698424 -s 0 -d 1 -p tcp -e 1040 -c 1 -i 16 -a 1 -x {0.0 2.0 11 ------- null}
h -t 0.698424 -s 0 -d 1 -p tcp -e 1040 -c 1 -i 16 -a 1 -x {0.0 2.0 -1 ------- null}
+ -t 0.700690666666667 -s 1 -d 6 -p tcp -e 1040 -c 1 -i 14 -a 1 -x {0.0 2.0 9 ------- null}
- -t 0.700690666666667 -s 1 -d 6 -p tcp -e 1040 -c 1 -i 14 -a 1 -x {0.0 2.0 9 ------- null}
h -t 0.700690666666667 -s 1 -d 6 -p tcp -e 1040 -c 1 -i 14 -a 1 -x {0.0 2.0 -1 ------- null}
d -t 0.700694666666667 -s 5 -d 6 -p tcp -e 1040 -c 1 -i 14 -a 1 -x {0.0 2.0 9 ------- null}
d -t 0.700694666666667 -s 4 -d 6 -p tcp -e 1040 -c 1 -i 14 -a 1 -x {0.0 2.0 9 ------- null}
d -t 0.700694666666667 -s 3 -d 6 -p tcp -e 1040 -c 1 -i 14 -a 1 -x {0.0 2.0 9 ------- null}
r -t 0.708424 -s 0 -d 1 -p tcp -e 1040 -c 1 -i 15 -a 1 -x {0.0 2.0 10 ------- null}
h -t 0.708424 -s 1 -d 6 -p tcp -e 1040 -c 1 -i 15 -a 1 -x {0.0 2.0 10 ------- null}
r -t 0.720694666666667 -s 6 -d 2 -p tcp -e 1040 -c 1 -i 14 -a 1 -x {0.0 2.0 9 ------- null}
h -t 0.720694666666667 -s 2 -d 6 -p ack -e 40 -c 1 -i 19 -a 1 -x {2.0 0.0 9 ------- null}
- -t 0.726157333333334 -s 0 -d 1 -p tcp -e 1040 -c 1 -i 17 -a 1 -x {0.0 2.0 12 ------- null}
h -t 0.726157333333334 -s 0 -d 1 -p tcp -e 1040 -c 1 -i 17 -a 1 -x {0.0 2.0 -1 ------- null}
+ -t 0.728424 -s 1 -d 6 -p tcp -e 1040 -c 1 -i 15 -a 1 -x {0.0 2.0 10 ------- null}
- -t 0.728424 -s 1 -d 6 -p tcp -e 1040 -c 1 -i 15 -a 1 -x {0.0 2.0 10 ------- null}
h -t 0.728424 -s 1 -d 6 -p tcp -e 1040 -c 1 -i 15 -a 1 -x {0.0 2.0 -1 ------- null}
d -t 0.728428 -s 5 -d 6 -p tcp -e 1040 -c 1 -i 15 -a 1 -x {0.0 2.0 10 ------- null}
d -t 0.728428 -s 4 -d 6 -p tcp -e 1040 -c 1 -i 15 -a 1 -x {0.0 2.0 10 ------- null}
d -t 0.728428 -s 3 -d 6 -p tcp -e 1040 -c 1 -i 15 -a 1 -x {0.0 2.0 10 ------- null}
r -t 0.736157333333333 -s 0 -d 1 -p tcp -e 1040 -c 1 -i 16 -a 1 -x {0.0 2.0 11 ------- null}
h -t 0.736157333333333 -s 1 -d 6 -p tcp -e 1040 -c 1 -i 16 -a 1 -x {0.0 2.0 11 ------- null}
+ -t 0.740694666666667 -s 2 -d 6 -p ack -e 40 -c 1 -i 19 -a 1 -x {2.0 0.0 9 ------- null}
- -t 0.740694666666667 -s 2 -d 6 -p ack -e 40 -c 1 -i 19 -a 1 -x {2.0 0.0 9 ------- null}
h -t 0.740694666666667 -s 2 -d 6 -p ack -e 40 -c 1 -i 19 -a 1 -x {2.0 0.0 -1 ------- null}
d -t 0.740698666666667 -s 5 -d 6 -p ack -e 40 -c 1 -i 19 -a 1 -x {2.0 0.0 9 ------- null}
d -t 0.740698666666667 -s 4 -d 6 -p ack -e 40 -c 1 -i 19 -a 1 -x {2.0 0.0 9 ------- null}
d -t 0.740698666666667 -s 3 -d 6 -p ack -e 40 -c 1 -i 19 -a 1 -x {2.0 0.0 9 ------- null}
r -t 0.748428 -s 6 -d 2 -p tcp -e 1040 -c 1 -i 15 -a 1 -x {0.0 2.0 10 ------- null}
- -t 0.753890666666667 -s 0 -d 1 -p tcp -e 1040 -c 1 -i 18 -a 1 -x {0.0 2.0 13 ------- null}
h -t 0.753890666666667 -s 0 -d 1 -p tcp -e 1040 -c 1 -i 18 -a 1 -x {0.0 2.0 -1 ------- null}
+ -t 0.756157333333333 -s 1 -d 6 -p tcp -e 1040 -c 1 -i 16 -a 1 -x {0.0 2.0 11 ------- null}
- -t 0.756157333333333 -s 1 -d 6 -p tcp -e 1040 -c 1 -i 16 -a 1 -x {0.0 2.0 11 ------- null}
h -t 0.756157333333333 -s 1 -d 6 -p tcp -e 1040 -c 1 -i 16 -a 1 -x {0.0 2.0 -1 ------- null}
d -t 0.756161333333333 -s 5 -d 6 -p tcp -e 1040 -c 1 -i 16 -a 1 -x {0.0 2.0 11 ------- null}
d -t 0.756161333333333 -s 4 -d 6 -p tcp -e 1040 -c 1 -i 16 -a 1 -x {0.0 2.0 11 ------- null}
d -t 0.756161333333333 -s 3 -d 6 -p tcp -e 1040 -c 1 -i 16 -a 1 -x {0.0 2.0 11 ------- null}
r -t 0.760698666666667 -s 6 -d 1 -p ack -e 40 -c 1 -i 19 -a 1 -x {2.0 0.0 9 ------- null}
+ -t 0.760698666666667 -s 1 -d 0 -p ack -e 40 -c 1 -i 19 -a 1 -x {2.0 0.0 9 ------- null}
- -t 0.760698666666667 -s 1 -d 0 -p ack -e 40 -c 1 -i 19 -a 1 -x {2.0 0.0 9 ------- null}
h -t 0.760698666666667 -s 1 -d 0 -p ack -e 40 -c 1 -i 19 -a 1 -x {2.0 0.0 -1 ------- null}
r -t 0.763890666666667 -s 0 -d 1 -p tcp -e 1040 -c 1 -i 17 -a 1 -x {0.0 2.0 12 ------- null}
h -t 0.763890666666667 -s 1 -d 6 -p tcp -e 1040 -c 1 -i 17 -a 1 -x {0.0 2.0 12 ------- null}
r -t 0.771765333333334 -s 1 -d 0 -p ack -e 40 -c 1 -i 19 -a 1 -x {2.0 0.0 9 ------- null}
+ -t 0.771765333333334 -s 0 -d 1 -p tcp -e 1040 -c 1 -i 20 -a 1 -x {0.0 2.0 14 ------- null}
+ -t 0.771765333333334 -s 0 -d 1 -p tcp -e 1040 -c 1 -i 21 -a 1 -x {0.0 2.0 15 ------- null}
+ -t 0.771765333333334 -s 0 -d 1 -p tcp -e 1040 -c 1 -i 22 -a 1 -x {0.0 2.0 16 ------- null}
r -t 0.776161333333333 -s 6 -d 2 -p tcp -e 1040 -c 1 -i 16 -a 1 -x {0.0 2.0 11 ------- null}
h -t 0.776161333333333 -s 2 -d 6 -p ack -e 40 -c 1 -i 23 -a 1 -x {2.0 0.0 11 ------- null}
- -t 0.781624 -s 0 -d 1 -p tcp -e 1040 -c 1 -i 20 -a 1 -x {0.0 2.0 14 ------- null}
h -t 0.781624 -s 0 -d 1 -p tcp -e 1040 -c 1 -i 20 -a 1 -x {0.0 2.0 -1 ------- null}
+ -t 0.783890666666667 -s 1 -d 6 -p tcp -e 1040 -c 1 -i 17 -a 1 -x {0.0 2.0 12 ------- null}
- -t 0.783890666666667 -s 1 -d 6 -p tcp -e 1040 -c 1 -i 17 -a 1 -x {0.0 2.0 12 ------- null}
h -t 0.783890666666667 -s 1 -d 6 -p tcp -e 1040 -c 1 -i 17 -a 1 -x {0.0 2.0 -1 ------- null}
d -t 0.783894666666667 -s 5 -d 6 -p tcp -e 1040 -c 1 -i 17 -a 1 -x {0.0 2.0 12 ------- null}
d -t 0.783894666666667 -s 4 -d 6 -p tcp -e 1040 -c 1 -i 17 -a 1 -x {0.0 2.0 12 ------- null}
d -t 0.783894666666667 -s 3 -d 6 -p tcp -e 1040 -c 1 -i 17 -a 1 -x {0.0 2.0 12 ------- null}
r -t 0.791624 -s 0 -d 1 -p tcp -e 1040 -c 1 -i 18 -a 1 -x {0.0 2.0 13 ------- null}
h -t 0.791624 -s 1 -d 6 -p tcp -e 1040 -c 1 -i 18 -a 1 -x {0.0 2.0 13 ------- null}
+ -t 0.796161333333333 -s 2 -d 6 -p ack -e 40 -c 1 -i 23 -a 1 -x {2.0 0.0 11 ------- null}
- -t 0.796161333333333 -s 2 -d 6 -p ack -e 40 -c 1 -i 23 -a 1 -x {2.0 0.0 11 ------- null}
h -t 0.796161333333333 -s 2 -d 6 -p ack -e 40 -c 1 -i 23 -a 1 -x {2.0 0.0 -1 ------- null}
d -t 0.796165333333334 -s 5 -d 6 -p ack -e 40 -c 1 -i 23 -a 1 -x {2.0 0.0 11 ------- null}
d -t 0.796165333333334 -s 4 -d 6 -p ack -e 40 -c 1 -i 23 -a 1 -x {2.0 0.0 11 ------- null}
d -t 0.796165333333334 -s 3 -d 6 -p ack -e 40 -c 1 -i 23 -a 1 -x {2.0 0.0 11 ------- null}
r -t 0.803894666666667 -s 6 -d 2 -p tcp -e 1040 -c 1 -i 17 -a 1 -x {0.0 2.0 12 ------- null}
- -t 0.809357333333334 -s 0 -d 1 -p tcp -e 1040 -c 1 -i 21 -a 1 -x {0.0 2.0 15 ------- null}
h -t 0.809357333333334 -s 0 -d 1 -p tcp -e 1040 -c 1 -i 21 -a 1 -x {0.0 2.0 -1 ------- null}
+ -t 0.811624 -s 1 -d 6 -p tcp -e 1040 -c 1 -i 18 -a 1 -x {0.0 2.0 13 ------- null}
- -t 0.811624 -s 1 -d 6 -p tcp -e 1040 -c 1 -i 18 -a 1 -x {0.0 2.0 13 ------- null}
h -t 0.811624 -s 1 -d 6 -p tcp -e 1040 -c 1 -i 18 -a 1 -x {0.0 2.0 -1 ------- null}
d -t 0.811628 -s 5 -d 6 -p tcp -e 1040 -c 1 -i 18 -a 1 -x {0.0 2.0 13 ------- null}
d -t 0.811628 -s 4 -d 6 -p tcp -e 1040 -c 1 -i 18 -a 1 -x {0.0 2.0 13 ------- null}
d -t 0.811628 -s 3 -d 6 -p tcp -e 1040 -c 1 -i 18 -a 1 -x {0.0 2.0 13 ------- null}
r -t 0.816165333333334 -s 6 -d 1 -p ack -e 40 -c 1 -i 23 -a 1 -x {2.0 0.0 11 ------- null}
+ -t 0.816165333333334 -s 1 -d 0 -p ack -e 40 -c 1 -i 23 -a 1 -x {2.0 0.0 11 ------- null}
- -t 0.816165333333334 -s 1 -d 0 -p ack -e 40 -c 1 -i 23 -a 1 -x {2.0 0.0 11 ------- null}
h -t 0.816165333333334 -s 1 -d 0 -p ack -e 40 -c 1 -i 23 -a 1 -x {2.0 0.0 -1 ------- null}
r -t 0.819357333333334 -s 0 -d 1 -p tcp -e 1040 -c 1 -i 20 -a 1 -x {0.0 2.0 14 ------- null}
h -t 0.819357333333334 -s 1 -d 6 -p tcp -e 1040 -c 1 -i 20 -a 1 -x {0.0 2.0 14 ------- null}
r -t 0.827232 -s 1 -d 0 -p ack -e 40 -c 1 -i 23 -a 1 -x {2.0 0.0 11 ------- null}
+ -t 0.827232 -s 0 -d 1 -p tcp -e 1040 -c 1 -i 24 -a 1 -x {0.0 2.0 17 ------- null}
+ -t 0.827232 -s 0 -d 1 -p tcp -e 1040 -c 1 -i 25 -a 1 -x {0.0 2.0 18 ------- null}
+ -t 0.827232 -s 0 -d 1 -p tcp -e 1040 -c 1 -i 26 -a 1 -x {0.0 2.0 19 ------- null}
r -t 0.831628 -s 6 -d 2 -p tcp -e 1040 -c 1 -i 18 -a 1 -x {0.0 2.0 13 ------- null}
h -t 0.831628 -s 2 -d 6 -p ack -e 40 -c 1 -i 27 -a 1 -x {2.0 0.0 13 ------- null}
- -t 0.837090666666667 -s 0 -d 1 -p tcp -e 1040 -c 1 -i 22 -a 1 -x {0.0 2.0 16 ------- null}
h -t 0.837090666666667 -s 0 -d 1 -p tcp -e 1040 -c 1 -i 22 -a 1 -x {0.0 2.0 -1 ------- null}
+ -t 0.839357333333334 -s 1 -d 6 -p tcp -e 1040 -c 1 -i 20 -a 1 -x {0.0 2.0 14 ------- null}
- -t 0.839357333333334 -s 1 -d 6 -p tcp -e 1040 -c 1 -i 20 -a 1 -x {0.0 2.0 14 ------- null}
h -t 0.839357333333334 -s 1 -d 6 -p tcp -e 1040 -c 1 -i 20 -a 1 -x {0.0 2.0 -1 ------- null}
d -t 0.839361333333334 -s 5 -d 6 -p tcp -e 1040 -c 1 -i 20 -a 1 -x {0.0 2.0 14 ------- null}
d -t 0.839361333333334 -s 4 -d 6 -p tcp -e 1040 -c 1 -i 20 -a 1 -x {0.0 2.0 14 ------- null}
d -t 0.839361333333334 -s 3 -d 6 -p tcp -e 1040 -c 1 -i 20 -a 1 -x {0.0 2.0 14 ------- null}
r -t 0.847090666666667 -s 0 -d 1 -p tcp -e 1040 -c 1 -i 21 -a 1 -x {0.0 2.0 15 ------- null}
h -t 0.847090666666667 -s 1 -d 6 -p tcp -e 1040 -c 1 -i 21 -a 1 -x {0.0 2.0 15 ------- null}
+ -t 0.851628 -s 2 -d 6 -p ack -e 40 -c 1 -i 27 -a 1 -x {2.0 0.0 13 ------- null}
- -t 0.851628 -s 2 -d 6 -p ack -e 40 -c 1 -i 27 -a 1 -x {2.0 0.0 13 ------- null}
h -t 0.851628 -s 2 -d 6 -p ack -e 40 -c 1 -i 27 -a 1 -x {2.0 0.0 -1 ------- null}
d -t 0.851632 -s 5 -d 6 -p ack -e 40 -c 1 -i 27 -a 1 -x {2.0 0.0 13 ------- null}
d -t 0.851632 -s 4 -d 6 -p ack -e 40 -c 1 -i 27 -a 1 -x {2.0 0.0 13 ------- null}
d -t 0.851632 -s 3 -d 6 -p ack -e 40 -c 1 -i 27 -a 1 -x {2.0 0.0 13 ------- null}
r -t 0.859361333333334 -s 6 -d 2 -p tcp -e 1040 -c 1 -i 20 -a 1 -x {0.0 2.0 14 ------- null}
- -t 0.864824 -s 0 -d 1 -p tcp -e 1040 -c 1 -i 24 -a 1 -x {0.0 2.0 17 ------- null}
h -t 0.864824 -s 0 -d 1 -p tcp -e 1040 -c 1 -i 24 -a 1 -x {0.0 2.0 -1 ------- null}
+ -t 0.867090666666667 -s 1 -d 6 -p tcp -e 1040 -c 1 -i 21 -a 1 -x {0.0 2.0 15 ------- null}
- -t 0.867090666666667 -s 1 -d 6 -p tcp -e 1040 -c 1 -i 21 -a 1 -x {0.0 2.0 15 ------- null}
h -t 0.867090666666667 -s 1 -d 6 -p tcp -e 1040 -c 1 -i 21 -a 1 -x {0.0 2.0 -1 ------- null}
d -t 0.867094666666667 -s 5 -d 6 -p tcp -e 1040 -c 1 -i 21 -a 1 -x {0.0 2.0 15 ------- null}
d -t 0.867094666666667 -s 4 -d 6 -p tcp -e 1040 -c 1 -i 21 -a 1 -x {0.0 2.0 15 ------- null}
d -t 0.867094666666667 -s 3 -d 6 -p tcp -e 1040 -c 1 -i 21 -a 1 -x {0.0 2.0 15 ------- null}
r -t 0.871632 -s 6 -d 1 -p ack -e 40 -c 1 -i 27 -a 1 -x {2.0 0.0 13 ------- null}
+ -t 0.871632 -s 1 -d 0 -p ack -e 40 -c 1 -i 27 -a 1 -x {2.0 0.0 13 ------- null}
- -t 0.871632 -s 1 -d 0 -p ack -e 40 -c 1 -i 27 -a 1 -x {2.0 0.0 13 ------- null}
h -t 0.871632 -s 1 -d 0 -p ack -e 40 -c 1 -i 27 -a 1 -x {2.0 0.0 -1 ------- null}
r -t 0.874824 -s 0 -d 1 -p tcp -e 1040 -c 1 -i 22 -a 1 -x {0.0 2.0 16 ------- null}
h -t 0.874824 -s 1 -d 6 -p tcp -e 1040 -c 1 -i 22 -a 1 -x {0.0 2.0 16 ------- null}
r -t 0.882698666666667 -s 1 -d 0 -p ack -e 40 -c 1 -i 27 -a 1 -x {2.0 0.0 13 ------- null}
+ -t 0.882698666666667 -s 0 -d 1 -p tcp -e 1040 -c 1 -i 28 -a 1 -x {0.0 2.0 20 ------- null}
+ -t 0.882698666666667 -s 0 -d 1 -p tcp -e 1040 -c 1 -i 29 -a 1 -x {0.0 2.0 21 ------- null}
+ -t 0.882698666666667 -s 0 -d 1 -p tcp -e 1040 -c 1 -i 30 -a 1 -x {0.0 2.0 22 ------- null}
r -t 0.887094666666667 -s 6 -d 2 -p tcp -e 1040 -c 1 -i 21 -a 1 -x {0.0 2.0 15 ------- null}
h -t 0.887094666666667 -s 2 -d 6 -p ack -e 40 -c 1 -i 31 -a 1 -x {2.0 0.0 15 ------- null}
- -t 0.892557333333334 -s 0 -d 1 -p tcp -e 1040 -c 1 -i 25 -a 1 -x {0.0 2.0 18 ------- null}
h -t 0.892557333333334 -s 0 -d 1 -p tcp -e 1040 -c 1 -i 25 -a 1 -x {0.0 2.0 -1 ------- null}
+ -t 0.894824 -s 1 -d 6 -p tcp -e 1040 -c 1 -i 22 -a 1 -x {0.0 2.0 16 ------- null}
- -t 0.894824 -s 1 -d 6 -p tcp -e 1040 -c 1 -i 22 -a 1 -x {0.0 2.0 16 ------- null}
h -t 0.894824 -s 1 -d 6 -p tcp -e 1040 -c 1 -i 22 -a 1 -x {0.0 2.0 -1 ------- null}
d -t 0.894828 -s 5 -d 6 -p tcp -e 1040 -c 1 -i 22 -a 1 -x {0.0 2.0 16 ------- null}
d -t 0.894828 -s 4 -d 6 -p tcp -e 1040 -c 1 -i 22 -a 1 -x {0.0 2.0 16 ------- null}
d -t 0.894828 -s 3 -d 6 -p tcp -e 1040 -c 1 -i 22 -a 1 -x {0.0 2.0 16 ------- null}
r -t 0.902557333333334 -s 0 -d 1 -p tcp -e 1040 -c 1 -i 24 -a 1 -x {0.0 2.0 17 ------- null}
h -t 0.902557333333334 -s 1 -d 6 -p tcp -e 1040 -c 1 -i 24 -a 1 -x {0.0 2.0 17 ------- null}
+ -t 0.907094666666667 -s 2 -d 6 -p ack -e 40 -c 1 -i 31 -a 1 -x {2.0 0.0 15 ------- null}
- -t 0.907094666666667 -s 2 -d 6 -p ack -e 40 -c 1 -i 31 -a 1 -x {2.0 0.0 15 ------- null}
h -t 0.907094666666667 -s 2 -d 6 -p ack -e 40 -c 1 -i 31 -a 1 -x {2.0 0.0 -1 ------- null}
d -t 0.907098666666667 -s 5 -d 6 -p ack -e 40 -c 1 -i 31 -a 1 -x {2.0 0.0 15 ------- null}
d -t 0.907098666666667 -s 4 -d 6 -p ack -e 40 -c 1 -i 31 -a 1 -x {2.0 0.0 15 ------- null}
d -t 0.907098666666667 -s 3 -d 6 -p ack -e 40 -c 1 -i 31 -a 1 -x {2.0 0.0 15 ------- null}
r -t 0.914828 -s 6 -d 2 -p tcp -e 1040 -c 1 -i 22 -a 1 -x {0.0 2.0 16 ------- null}
- -t 0.920290666666667 -s 0 -d 1 -p tcp -e 1040 -c 1 -i 26 -a 1 -x {0.0 2.0 19 ------- null}
h -t 0.920290666666667 -s 0 -d 1 -p tcp -e 1040 -c 1 -i 26 -a 1 -x {0.0 2.0 -1 ------- null}
+ -t 0.922557333333334 -s 1 -d 6 -p tcp -e 1040 -c 1 -i 24 -a 1 -x {0.0 2.0 17 ------- null}
- -t 0.922557333333334 -s 1 -d 6 -p tcp -e 1040 -c 1 -i 24 -a 1 -x {0.0 2.0 17 ------- null}
h -t 0.922557333333334 -s 1 -d 6 -p tcp -e 1040 -c 1 -i 24 -a 1 -x {0.0 2.0 -1 ------- null}
d -t 0.922561333333334 -s 5 -d 6 -p tcp -e 1040 -c 1 -i 24 -a 1 -x {0.0 2.0 17 ------- null}
d -t 0.922561333333334 -s 4 -d 6 -p tcp -e 1040 -c 1 -i 24 -a 1 -x {0.0 2.0 17 ------- null}
d -t 0.922561333333334 -s 3 -d 6 -p tcp -e 1040 -c 1 -i 24 -a 1 -x {0.0 2.0 17 ------- null}
r -t 0.927098666666667 -s 6 -d 1 -p ack -e 40 -c 1 -i 31 -a 1 -x {2.0 0.0 15 ------- null}
+ -t 0.927098666666667 -s 1 -d 0 -p ack -e 40 -c 1 -i 31 -a 1 -x {2.0 0.0 15 ------- null}
- -t 0.927098666666667 -s 1 -d 0 -p ack -e 40 -c 1 -i 31 -a 1 -x {2.0 0.0 15 ------- null}