+ 0.1 0 1 tcp 40 ------- 1 0.0 2.0 0 0
- 0.1 0 1 tcp 40 ------- 1 0.0 2.0 0 0
r 0.111067 0 1 tcp 40 ------- 1 0.0 2.0 0 0
h 0.111067 1 6 tcp 40 ------- 1 0.0 2.0 0 0
+ 0.131067 1 6 tcp 40 ------- 1 0.0 2.0 0 0
- 0.131067 1 6 tcp 40 ------- 1 0.0 2.0 0 0
d 0.131071 5 6 tcp 40 ------- 1 0.0 2.0 0 0
d 0.131071 4 6 tcp 40 ------- 1 0.0 2.0 0 0
d 0.131071 3 6 tcp 40 ------- 1 0.0 2.0 0 0
r 0.151071 6 2 tcp 40 ------- 1 0.0 2.0 0 0
h 0.151071 2 6 ack 40 ------- 1 2.0 0.0 0 1
+ 0.171071 2 6 ack 40 ------- 1 2.0 0.0 0 1
- 0.171071 2 6 ack 40 ------- 1 2.0 0.0 0 1
d 0.171075 5 6 ack 40 ------- 1 2.0 0.0 0 1
d 0.171075 4 6 ack 40 ------- 1 2.0 0.0 0 1
d 0.171075 3 6 ack 40 ------- 1 2.0 0.0 0 1
r 0.191075 6 1 ack 40 ------- 1 2.0 0.0 0 1
+ 0.191075 1 0 ack 40 ------- 1 2.0 0.0 0 1
- 0.191075 1 0 ack 40 ------- 1 2.0 0.0 0 1
r 0.202141 1 0 ack 40 ------- 1 2.0 0.0 0 1
+ 0.202141 0 1 tcp 1040 ------- 1 0.0 2.0 1 2
- 0.202141 0 1 tcp 1040 ------- 1 0.0 2.0 1 2
+ 0.202141 0 1 tcp 1040 ------- 1 0.0 2.0 2 3
- 0.229875 0 1 tcp 1040 ------- 1 0.0 2.0 2 3
r 0.239875 0 1 tcp 1040 ------- 1 0.0 2.0 1 2
h 0.239875 1 6 tcp 1040 ------- 1 0.0 2.0 1 2
+ 0.259875 1 6 tcp 1040 ------- 1 0.0 2.0 1 2
- 0.259875 1 6 tcp 1040 ------- 1 0.0 2.0 1 2
d 0.259879 5 6 tcp 1040 ------- 1 0.0 2.0 1 2
d 0.259879 4 6 tcp 1040 ------- 1 0.0 2.0 1 2
d 0.259879 3 6 tcp 1040 ------- 1 0.0 2.0 1 2
r 0.267608 0 1 tcp 1040 ------- 1 0.0 2.0 2 3
h 0.267608 1 6 tcp 1040 ------- 1 0.0 2.0 2 3
r 0.279879 6 2 tcp 1040 ------- 1 0.0 2.0 1 2
+ 0.287608 1 6 tcp 1040 ------- 1 0.0 2.0 2 3
- 0.287608 1 6 tcp 1040 ------- 1 0.0 2.0 2 3
d 0.287612 5 6 tcp 1040 ------- 1 0.0 2.0 2 3
d 0.287612 4 6 tcp 1040 ------- 1 0.0 2.0 2 3
d 0.287612 3 6 tcp 1040 ------- 1 0.0 2.0 2 3
r 0.307612 6 2 tcp 1040 ------- 1 0.0 2.0 2 3
h 0.307612 2 6 ack 40 ------- 1 2.0 0.0 2 4
+ 0.327612 2 6 ack 40 ------- 1 2.0 0.0 2 4
- 0.327612 2 6 ack 40 ------- 1 2.0 0.0 2 4
d 0.327616 5 6 ack 40 ------- 1 2.0 0.0 2 4
d 0.327616 4 6 ack 40 ------- 1 2.0 0.0 2 4
d 0.327616 3 6 ack 40 ------- 1 2.0 0.0 2 4
r 0.347616 6 1 ack 40 ------- 1 2.0 0.0 2 4
+ 0.347616 1 0 ack 40 ------- 1 2.0 0.0 2 4
- 0.347616 1 0 ack 40 ------- 1 2.0 0.0 2 4
r 0.358683 1 0 ack 40 ------- 1 2.0 0.0 2 4
+ 0.358683 0 1 tcp 1040 ------- 1 0.0 2.0 3 5
- 0.358683 0 1 tcp 1040 ------- 1 0.0 2.0 3 5
+ 0.358683 0 1 tcp 1040 ------- 1 0.0 2.0 4 6
+ 0.358683 0 1 tcp 1040 ------- 1 0.0 2.0 5 7
- 0.386416 0 1 tcp 1040 ------- 1 0.0 2.0 4 6
r 0.396416 0 1 tcp 1040 ------- 1 0.0 2.0 3 5
h 0.396416 1 6 tcp 1040 ------- 1 0.0 2.0 3 5
- 0.414149 0 1 tcp 1040 ------- 1 0.0 2.0 5 7
+ 0.416416 1 6 tcp 1040 ------- 1 0.0 2.0 3 5
- 0.416416 1 6 tcp 1040 ------- 1 0.0 2.0 3 5
d 0.41642 5 6 tcp 1040 ------- 1 0.0 2.0 3 5
d 0.41642 4 6 tcp 1040 ------- 1 0.0 2.0 3 5
d 0.41642 3 6 tcp 1040 ------- 1 0.0 2.0 3 5
r 0.424149 0 1 tcp 1040 ------- 1 0.0 2.0 4 6
h 0.424149 1 6 tcp 1040 ------- 1 0.0 2.0 4 6
r 0.43642 6 2 tcp 1040 ------- 1 0.0 2.0 3 5
+ 0.444149 1 6 tcp 1040 ------- 1 0.0 2.0 4 6
- 0.444149 1 6 tcp 1040 ------- 1 0.0 2.0 4 6
d 0.444153 5 6 tcp 1040 ------- 1 0.0 2.0 4 6
d 0.444153 4 6 tcp 1040 ------- 1 0.0 2.0 4 6
d 0.444153 3 6 tcp 1040 ------- 1 0.0 2.0 4 6
r 0.451883 0 1 tcp 1040 ------- 1 0.0 2.0 5 7
h 0.451883 1 6 tcp 1040 ------- 1 0.0 2.0 5 7
r 0.464153 6 2 tcp 1040 ------- 1 0.0 2.0 4 6
h 0.464153 2 6 ack 40 ------- 1 2.0 0.0 4 8
+ 0.471883 1 6 tcp 1040 ------- 1 0.0 2.0 5 7
- 0.471883 1 6 tcp 1040 ------- 1 0.0 2.0 5 7
d 0.471887 5 6 tcp 1040 ------- 1 0.0 2.0 5 7
d 0.471887 4 6 tcp 1040 ------- 1 0.0 2.0 5 7
d 0.471887 3 6 tcp 1040 ------- 1 0.0 2.0 5 7
+ 0.484153 2 6 ack 40 ------- 1 2.0 0.0 4 8
- 0.484153 2 6 ack 40 ------- 1 2.0 0.0 4 8
d 0.484157 5 6 ack 40 ------- 1 2.0 0.0 4 8
d 0.484157 4 6 ack 40 ------- 1 2.0 0.0 4 8
d 0.484157 3 6 ack 40 ------- 1 2.0 0.0 4 8
r 0.491887 6 2 tcp 1040 ------- 1 0.0 2.0 5 7
r 0.504157 6 1 ack 40 ------- 1 2.0 0.0 4 8
+ 0.504157 1 0 ack 40 ------- 1 2.0 0.0 4 8
- 0.504157 1 0 ack 40 ------- 1 2.0 0.0 4 8
r 0.515224 1 0 ack 40 ------- 1 2.0 0.0 4 8
+ 0.515224 0 1 tcp 1040 ------- 1 0.0 2.0 6 9
- 0.515224 0 1 tcp 1040 ------- 1 0.0 2.0 6 9
+ 0.515224 0 1 tcp 1040 ------- 1 0.0 2.0 7 10
+ 0.515224 0 1 tcp 1040 ------- 1 0.0 2.0 8 11
- 0.542957 0 1 tcp 1040 ------- 1 0.0 2.0 7 10
r 0.552957 0 1 tcp 1040 ------- 1 0.0 2.0 6 9
h 0.552957 1 6 tcp 1040 ------- 1 0.0 2.0 6 9
- 0.570691 0 1 tcp 1040 ------- 1 0.0 2.0 8 11
+ 0.572957 1 6 tcp 1040 ------- 1 0.0 2.0 6 9
- 0.572957 1 6 tcp 1040 ------- 1 0.0 2.0 6 9
d 0.572961 5 6 tcp 1040 ------- 1 0.0 2.0 6 9
d 0.572961 4 6 tcp 1040 ------- 1 0.0 2.0 6 9
d 0.572961 3 6 tcp 1040 ------- 1 0.0 2.0 6 9
r 0.580691 0 1 tcp 1040 ------- 1 0.0 2.0 7 10
h 0.580691 1 6 tcp 1040 ------- 1 0.0 2.0 7 10
h 0.591887 2 6 ack 40 ------- 1 2.0 0.0 5 12
r 0.592961 6 2 tcp 1040 ------- 1 0.0 2.0 6 9
+ 0.600691 1 6 tcp 1040 ------- 1 0.0 2.0 7 10
- 0.600691 1 6 tcp 1040 ------- 1 0.0 2.0 7 10
d 0.600695 5 6 tcp 1040 ------- 1 0.0 2.0 7 10
d 0.600695 4 6 tcp 1040 ------- 1 0.0 2.0 7 10
d 0.600695 3 6 tcp 1040 ------- 1 0.0 2.0 7 10
r 0.608424 0 1 tcp 1040 ------- 1 0.0 2.0 8 11
h 0.608424 1 6 tcp 1040 ------- 1 0.0 2.0 8 11
+ 0.611887 2 6 ack 40 ------- 1 2.0 0.0 5 12
- 0.611887 2 6 ack 40 ------- 1 2.0 0.0 5 12
d 0.611891 5 6 ack 40 ------- 1 2.0 0.0 5 12
d 0.611891 4 6 ack 40 ------- 1 2.0 0.0 5 12
d 0.611891 3 6 ack 40 ------- 1 2.0 0.0 5 12
r 0.620695 6 2 tcp 1040 ------- 1 0.0 2.0 7 10
h 0.620695 2 6 ack 40 ------- 1 2.0 0.0 7 13
+ 0.628424 1 6 tcp 1040 ------- 1 0.0 2.0 8 11
- 0.628424 1 6 tcp 1040 ------- 1 0.0 2.0 8 11
d 0.628428 5 6 tcp 1040 ------- 1 0.0 2.0 8 11
d 0.628428 4 6 tcp 1040 ------- 1 0.0 2.0 8 11
d 0.628428 3 6 tcp 1040 ------- 1 0.0 2.0 8 11
r 0.631891 6 1 ack 40 ------- 1 2.0 0.0 5 12
+ 0.631891 1 0 ack 40 ------- 1 2.0 0.0 5 12
- 0.631891 1 0 ack 40 ------- 1 2.0 0.0 5 12
+ 0.640695 2 6 ack 40 ------- 1 2.0 0.0 7 13
- 0.640695 2 6 ack 40 ------- 1 2.0 0.0 7 13
d 0.640699 5 6 ack 40 ------- 1 2.0 0.0 7 13
d 0.640699 4 6 ack 40 ------- 1 2.0 0.0 7 13
d 0.640699 3 6 ack 40 ------- 1 2.0 0.0 7 13
r 0.642957 1 0 ack 40 ------- 1 2.0 0.0 5 12
+ 0.642957 0 1 tcp 1040 ------- 1 0.0 2.0 9 14
- 0.642957 0 1 tcp 1040 ------- 1 0.0 2.0 9 14
+ 0.642957 0 1 tcp 1040 ------- 1 0.0 2.0 10 15
r 0.648428 6 2 tcp 1040 ------- 1 0.0 2.0 8 11
r 0.660699 6 1 ack 40 ------- 1 2.0 0.0 7 13
+ 0.660699 1 0 ack 40 ------- 1 2.0 0.0 7 13
- 0.660699 1 0 ack 40 ------- 1 2.0 0.0 7 13
- 0.670691 0 1 tcp 1040 ------- 1 0.0 2.0 10 15
r 0.671765 1 0 ack 40 ------- 1 2.0 0.0 7 13
+ 0.671765 0 1 tcp 1040 ------- 1 0.0 2.0 11 16
+ 0.671765 0 1 tcp 1040 ------- 1 0.0 2.0 12 17
+ 0.671765 0 1 tcp 1040 ------- 1 0.0 2.0 13 18
r 0.680691 0 1 tcp 1040 ------- 1 0.0 2.0 9 14
h 0.680691 1 6 tcp 1040 ------- 1 0.0 2.0 9 14
- 0.698424 0 1 tcp 1040 ------- 1 0.0 2.0 11 16
+ 0.700691 1 6 tcp 1040 ------- 1 0.0 2.0 9 14
- 0.700691 1 6 tcp 1040 ------- 1 0.0 2.0 9 14
d 0.700695 5 6 tcp 1040 ------- 1 0.0 2.0 9 14
d 0.700695 4 6 tcp 1040 ------- 1 0.0 2.0 9 14
d 0.700695 3 6 tcp 1040 ------- 1 0.0 2.0 9 14
r 0.708424 0 1 tcp 1040 ------- 1 0.0 2.0 10 15
h 0.708424 1 6 tcp 1040 ------- 1 0.0 2.0 10 15
r 0.720695 6 2 tcp 1040 ------- 1 0.0 2.0 9 14
h 0.720695 2 6 ack 40 ------- 1 2.0 0.0 9 19
- 0.726157 0 1 tcp 1040 ------- 1 0.0 2.0 12 17
+ 0.728424 1 6 tcp 1040 ------- 1 0.0 2.0 10 15
- 0.728424 1 6 tcp 1040 ------- 1 0.0 2.0 10 15
d 0.728428 5 6 tcp 1040 ------- 1 0.0 2.0 10 15
d 0.728428 4 6 tcp 1040 ------- 1 0.0 2.0 10 15
d 0.728428 3 6 tcp 1040 ------- 1 0.0 2.0 10 15
r 0.736157 0 1 tcp 1040 ------- 1 0.0 2.0 11 16
h 0.736157 1 6 tcp 1040 ------- 1 0.0 2.0 11 16
+ 0.740695 2 6 ack 40 ------- 1 2.0 0.0 9 19
- 0.740695 2 6 ack 40 ------- 1 2.0 0.0 9 19
d 0.740699 5 6 ack 40 ------- 1 2.0 0.0 9 19
d 0.740699 4 6 ack 40 ------- 1 2.0 0.0 9 19
d 0.740699 3 6 ack 40 ------- 1 2.0 0.0 9 19
r 0.748428 6 2 tcp 1040 ------- 1 0.0 2.0 10 15
- 0.753891 0 1 tcp 1040 ------- 1 0.0 2.0 13 18
+ 0.756157 1 6 tcp 1040 ------- 1 0.0 2.0 11 16
- 0.756157 1 6 tcp 1040 ------- 1 0.0 2.0 11 16
d 0.756161 5 6 tcp 1040 ------- 1 0.0 2.0 11 16
d 0.756161 4 6 tcp 1040 ------- 1 0.0 2.0 11 16
d 0.756161 3 6 tcp 1040 ------- 1 0.0 2.0 11 16
r 0.760699 6 1 ack 40 ------- 1 2.0 0.0 9 19
+ 0.760699 1 0 ack 40 ------- 1 2.0 0.0 9 19
- 0.760699 1 0 ack 40 ------- 1 2.0 0.0 9 19
r 0.763891 0 1 tcp 1040 ------- 1 0.0 2.0 12 17
h 0.763891 1 6 tcp 1040 ------- 1 0.0 2.0 12 17
r 0.771765 1 0 ack 40 ------- 1 2.0 0.0 9 19
+ 0.771765 0 1 tcp 1040 ------- 1 0.0 2.0 14 20
+ 0.771765 0 1 tcp 1040 ------- 1 0.0 2.0 15 21
+ 0.771765 0 1 tcp 1040 ------- 1 0.0 2.0 16 22
r 0.776161 6 2 tcp 1040 ------- 1 0.0 2.0 11 16
h 0.776161 2 6 ack 40 ------- 1 2.0 0.0 11 23
- 0.781624 0 1 tcp 1040 ------- 1 0.0 2.0 14 20
+ 0.783891 1 6 tcp 1040 ------- 1 0.0 2.0 12 17
- 0.783891 1 6 tcp 1040 ------- 1 0.0 2.0 12 17
d 0.783895 5 6 tcp 1040 ------- 1 0.0 2.0 12 17
d 0.783895 4 6 tcp 1040 ------- 1 0.0 2.0 12 17
d 0.783895 3 6 tcp 1040 ------- 1 0.0 2.0 12 17
r 0.791624 0 1 tcp 1040 ------- 1 0.0 2.0 13 18
h 0.791624 1 6 tcp 1040 ------- 1 0.0 2.0 13 18
+ 0.796161 2 6 ack 40 ------- 1 2.0 0.0 11 23
- 0.796161 2 6 ack 40 ------- 1 2.0 0.0 11 23
d 0.796165 5 6 ack 40 ------- 1 2.0 0.0 11 23
d 0.796165 4 6 ack 40 ------- 1 2.0 0.0 11 23
d 0.796165 3 6 ack 40 ------- 1 2.0 0.0 11 23
r 0.803895 6 2 tcp 1040 ------- 1 0.0 2.0 12 17
- 0.809357 0 1 tcp 1040 ------- 1 0.0 2.0 15 21
+ 0.811624 1 6 tcp 1040 ------- 1 0.0 2.0 13 18
- 0.811624 1 6 tcp 1040 ------- 1 0.0 2.0 13 18
d 0.811628 5 6 tcp 1040 ------- 1 0.0 2.0 13 18
d 0.811628 4 6 tcp 1040 ------- 1 0.0 2.0 13 18
d 0.811628 3 6 tcp 1040 ------- 1 0.0 2.0 13 18
r 0.816165 6 1 ack 40 ------- 1 2.0 0.0 11 23
+ 0.816165 1 0 ack 40 ------- 1 2.0 0.0 11 23
- 0.816165 1 0 ack 40 ------- 1 2.0 0.0 11 23
r 0.819357 0 1 tcp 1040 ------- 1 0.0 2.0 14 20
h 0.819357 1 6 tcp 1040 ------- 1 0.0 2.0 14 20
r 0.827232 1 0 ack 40 ------- 1 2.0 0.0 11 23
+ 0.827232 0 1 tcp 1040 ------- 1 0.0 2.0 17 24
+ 0.827232 0 1 tcp 1040 ------- 1 0.0 2.0 18 25
+ 0.827232 0 1 tcp 1040 ------- 1 0.0 2.0 19 26
r 0.831628 6 2 tcp 1040 ------- 1 0.0 2.0 13 18
h 0.831628 2 6 ack 40 ------- 1 2.0 0.0 13 27
- 0.837091 0 1 tcp 1040 ------- 1 0.0 2.0 16 22
+ 0.839357 1 6 tcp 1040 ------- 1 0.0 2.0 14 20
- 0.839357 1 6 tcp 1040 ------- 1 0.0 2.0 14 20
d 0.839361 5 6 tcp 1040 ------- 1 0.0 2.0 14 20
d 0.839361 4 6 tcp 1040 ------- 1 0.0 2.0 14 20
d 0.839361 3 6 tcp 1040 ------- 1 0.0 2.0 14 20
r 0.847091 0 1 tcp 1040 ------- 1 0.0 2.0 15 21
h 0.847091 1 6 tcp 1040 ------- 1 0.0 2.0 15 21
+ 0.851628 2 6 ack 40 ------- 1 2.0 0.0 13 27
- 0.851628 2 6 ack 40 ------- 1 2.0 0.0 13 27
d 0.851632 5 6 ack 40 ------- 1 2.0 0.0 13 27
d 0.851632 4 6 ack 40 ------- 1 2.0 0.0 13 27
d 0.851632 3 6 ack 40 ------- 1 2.0 0.0 13 27
r 0.859361 6 2 tcp 1040 ------- 1 0.0 2.0 14 20
- 0.864824 0 1 tcp 1040 ------- 1 0.0 2.0 17 24
+ 0.867091 1 6 tcp 1040 ------- 1 0.0 2.0 15 21
- 0.867091 1 6 tcp 1040 ------- 1 0.0 2.0 15 21
d 0.867095 5 6 tcp 1040 ------- 1 0.0 2.0 15 21
d 0.867095 4 6 tcp 1040 ------- 1 0.0 2.0 15 21
d 0.867095 3 6 tcp 1040 ------- 1 0.0 2.0 15 21
r 0.871632 6 1 ack 40 ------- 1 2.0 0.0 13 27
+ 0.871632 1 0 ack 40 ------- 1 2.0 0.0 13 27
- 0.871632 1 0 ack 40 ------- 1 2.0 0.0 13 27
r 0.874824 0 1 tcp 1040 ------- 1 0.0 2.0 16 22
h 0.874824 1 6 tcp 1040 ------- 1 0.0 2.0 16 22
r 0.882699 1 0 ack 40 ------- 1 2.0 0.0 13 27
+ 0.882699 0 1 tcp 1040 ------- 1 0.0 2.0 20 28
+ 0.882699 0 1 tcp 1040 ------- 1 0.0 2.0 21 29
+ 0.882699 0 1 tcp 1040 ------- 1 0.0 2.0 22 30
r 0.887095 6 2 tcp 1040 ------- 1 0.0 2.0 15 21
h 0.887095 2 6 ack 40 ------- 1 2.0 0.0 15 31
- 0.892557 0 1 tcp 1040 ------- 1 0.0 2.0 18 25
+ 0.894824 1 6 tcp 1040 ------- 1 0.0 2.0 16 22
- 0.894824 1 6 tcp 1040 ------- 1 0.0 2.0 16 22
d 0.894828 5 6 tcp 1040 ------- 1 0.0 2.0 16 22
d 0.894828 4 6 tcp 1040 ------- 1 0.0 2.0 16 22
d 0.894828 3 6 tcp 1040 ------- 1 0.0 2.0 16 22
r 0.902557 0 1 tcp 1040 ------- 1 0.0 2.0 17 24
h 0.902557 1 6 tcp 1040 ------- 1 0.0 2.0 17 24
+ 0.907095 2 6 ack 40 ------- 1 2.0 0.0 15 31
- 0.907095 2 6 ack 40 ------- 1 2.0 0.0 15 31
d 0.907099 5 6 ack 40 ------- 1 2.0 0.0 15 31
d 0.907099 4 6 ack 40 ------- 1 2.0 0.0 15 31
d 0.907099 3 6 ack 40 ------- 1 2.0 0.0 15 31
r 0.914828 6 2 tcp 1040 ------- 1 0.0 2.0 16 22
- 0.920291 0 1 tcp 1040 ------- 1 0.0 2.0 19 26
+ 0.922557 1 6 tcp 1040 ------- 1 0.0 2.0 17 24
- 0.922557 1 6 tcp 1040 ------- 1 0.0 2.0 17 24
d 0.922561 5 6 tcp 1040 ------- 1 0.0 2.0 17 24
d 0.922561 4 6 tcp 1040 ------- 1 0.0 2.0 17 24
d 0.922561 3 6 tcp 1040 ------- 1 0.0 2.0 17 24
r 0.927099 6 1 ack 40 ------- 1 2.0 0.0 15 31
+ 0.927099 1 0 ack 40 ------- 1 2.0 0.0 15 31
- 0.927099 1 0 ack 40 ------- 1 2.0 0.0 15 31
r 0.930291 0 1 tcp 1040 ------- 1 0.0 2.0 18 25
h 0.930291 1 6 tcp 1040 ------- 1 0.0 2.0 18 25
r 0.938165 1 0 ack 40 ------- 1 2.0 0.0 15 31
+ 0.938165 0 1 tcp 1040 ------- 1 0.0 2.0 23 32
+ 0.938165 0 1 tcp 1040 ------- 1 0.0 2.0 24 33
+ 0.938165 0 1 tcp 1040 ------- 1 0.0 2.0 25 34
r 0.942561 6 2 tcp 1040 ------- 1 0.0 2.0 17 24
h 0.942561 2 6 ack 40 ------- 1 2.0 0.0 17 35
- 0.948024 0 1 tcp 1040 ------- 1 0.0 2.0 20 28
+ 0.950291 1 6 tcp 1040 ------- 1 0.0 2.0 18 25
- 0.950291 1 6 tcp 1040 ------- 1 0.0 2.0 18 25
d 0.950295 5 6 tcp 1040 ------- 1 0.0 2.0 18 25
d 0.950295 4 6 tcp 1040 ------- 1 0.0 2.0 18 25
d 0.950295 3 6 tcp 1040 ------- 1 0.0 2.0 18 25
r 0.958024 0 1 tcp 1040 ------- 1 0.0 2.0 19 26
h 0.958024 1 6 tcp 1040 ------- 1 0.0 2.0 19 26
+ 0.962561 2 6 ack 40 ------- 1 2.0 0.0 17 35
- 0.962561 2 6 ack 40 ------- 1 2.0 0.0 17 35
d 0.962565 5 6 ack 40 ------- 1 2.0 0.0 17 35
d 0.962565 4 6 ack 40 ------- 1 2.0 0.0 17 35
d 0.962565 3 6 ack 40 ------- 1 2.0 0.0 17 35
r 0.970295 6 2 tcp 1040 ------- 1 0.0 2.0 18 25
- 0.975757 0 1 tcp 1040 ------- 1 0.0 2.0 21 29
+ 0.978024 1 6 tcp 1040 ------- 1 0.0 2.0 19 26
- 0.978024 1 6 tcp 1040 ------- 1 0.0 2.0 19 26
d 0.978028 5 6 tcp 1040 ------- 1 0.0 2.0 19 26
d 0.978028 4 6 tcp 1040 ------- 1 0.0 2.0 19 26
d 0.978028 3 6 tcp 1040 ------- 1 0.0 2.0 19 26
r 0.982565 6 1 ack 40 ------- 1 2.0 0.0 17 35
+ 0.982565 1 0 ack 40 ------- 1 2.0 0.0 17 35
- 0.982565 1 0 ack 40 ------- 1 2.0 0.0 17 35
r 0.985757 0 1 tcp 1040 ------- 1 0.0 2.0 20 28
h 0.985757 1 6 tcp 1040 ------- 1 0.0 2.0 20 28
r 0.993632 1 0 ack 40 ------- 1 2.0 0.0 17 35
+ 0.993632 0 1 tcp 1040 ------- 1 0.0 2.0 26 36
+ 0.993632 0 1 tcp 1040 ------- 1 0.0 2.0 27 37
+ 0.993632 0 1 tcp 1040 ------- 1 0.0 2.0 28 38
r 0.998028 6 2 tcp 1040 ------- 1 0.0 2.0 19 26
h 0.998028 2 6 ack 40 ------- 1 2.0 0.0 19 39
- 1.003491 0 1 tcp 1040 ------- 1 0.0 2.0 22 30
+ 1.005757 1 6 tcp 1040 ------- 1 0.0 2.0 20 28
- 1.005757 1 6 tcp 1040 ------- 1 0.0 2.0 20 28
d 1.005761 5 6 tcp 1040 ------- 1 0.0 2.0 20 28
d 1.005761 4 6 tcp 1040 ------- 1 0.0 2.0 20 28
d 1.005761 3 6 tcp 1040 ------- 1 0.0 2.0 20 28
r 1.013491 0 1 tcp 1040 ------- 1 0.0 2.0 21 29
h 1.013491 1 6 tcp 1040 ------- 1 0.0 2.0 21 29
+ 1.018028 2 6 ack 40 ------- 1 2.0 0.0 19 39
- 1.018028 2 6 ack 40 ------- 1 2.0 0.0 19 39
d 1.018032 5 6 ack 40 ------- 1 2.0 0.0 19 39
d 1.018032 4 6 ack 40 ------- 1 2.0 0.0 19 39
d 1.018032 3 6 ack 40 ------- 1 2.0 0.0 19 39
r 1.025761 6 2 tcp 1040 ------- 1 0.0 2.0 20 28
- 1.031224 0 1 tcp 1040 ------- 1 0.0 2.0 23 32
+ 1.033491 1 6 tcp 1040 ------- 1 0.0 2.0 21 29
- 1.033491 1 6 tcp 1040 ------- 1 0.0 2.0 21 29
d 1.033495 5 6 tcp 1040 ------- 1 0.0 2.0 21 29
d 1.033495 4 6 tcp 1040 ------- 1 0.0 2.0 21 29
d 1.033495 3 6 tcp 1040 ------- 1 0.0 2.0 21 29
r 1.038032 6 1 ack 40 ------- 1 2.0 0.0 19 39
+ 1.038032 1 0 ack 40 ------- 1 2.0 0.0 19 39
- 1.038032 1 0 ack 40 ------- 1 2.0 0.0 19 39
r 1.041224 0 1 tcp 1040 ------- 1 0.0 2.0 22 30
h 1.041224 1 6 tcp 1040 ------- 1 0.0 2.0 22 30
r 1.049099 1 0 ack 40 ------- 1 2.0 0.0 19 39
+ 1.049099 0 1 tcp 1040 ------- 1 0.0 2.0 29 40
+ 1.049099 0 1 tcp 1040 ------- 1 0.0 2.0 30 41
+ 1.049099 0 1 tcp 1040 ------- 1 0.0 2.0 31 42
r 1.053495 6 2 tcp 1040 ------- 1 0.0 2.0 21 29
h 1.053495 2 6 ack 40 ------- 1 2.0 0.0 21 43
- 1.058957 0 1 tcp 1040 ------- 1 0.0 2.0 24 33
+ 1.061224 1 6 tcp 1040 ------- 1 0.0 2.0 22 30
- 1.061224 1 6 tcp 1040 ------- 1 0.0 2.0 22 30
d 1.061228 5 6 tcp 1040 ------- 1 0.0 2.0 22 30
d 1.061228 4 6 tcp 1040 ------- 1 0.0 2.0 22 30
d 1.061228 3 6 tcp 1040 ------- 1 0.0 2.0 22 30
r 1.068957 0 1 tcp 1040 ------- 1 0.0 2.0 23 32
h 1.068957 1 6 tcp 1040 ------- 1 0.0 2.0 23 32
+ 1.073495 2 6 ack 40 ------- 1 2.0 0.0 21 43
- 1.073495 2 6 ack 40 ------- 1 2.0 0.0 21 43
d 1.073499 5 6 ack 40 ------- 1 2.0 0.0 21 43
d 1.073499 4 6 ack 40 ------- 1 2.0 0.0 21 43
d 1.073499 3 6 ack 40 ------- 1 2.0 0.0 21 43
r 1.081228 6 2 tcp 1040 ------- 1 0.0 2.0 22 30
- 1.086691 0 1 tcp 1040 ------- 1 0.0 2.0 25 34
+ 1.088957 1 6 tcp 1040 ------- 1 0.0 2.0 23 32
- 1.088957 1 6 tcp 1040 ------- 1 0.0 2.0 23 32
d 1.088961 5 6 tcp 1040 ------- 1 0.0 2.0 23 32
d 1.088961 4 6 tcp 1040 ------- 1 0.0 2.0 23 32
d 1.088961 3 6 tcp 1040 ------- 1 0.0 2.0 23 32
r 1.093499 6 1 ack 40 ------- 1 2.0 0.0 21 43
+ 1.093499 1 0 ack 40 ------- 1 2.0 0.0 21 43
- 1.093499 1 0 ack 40 ------- 1 2.0 0.0 21 43
r 1.096691 0 1 tcp 1040 ------- 1 0.0 2.0 24 33
h 1.096691 1 6 tcp 1040 ------- 1 0.0 2.0 24 33
r 1.104565 1 0 ack 40 ------- 1 2.0 0.0 21 43
+ 1.104565 0 1 tcp 1040 ------- 1 0.0 2.0 32 44
+ 1.104565 0 1 tcp 1040 ------- 1 0.0 2.0 33 45
+ 1.104565 0 1 tcp 1040 ------- 1 0.0 2.0 34 46
r 1.108961 6 2 tcp 1040 ------- 1 0.0 2.0 23 32
h 1.108961 2 6 ack 40 ------- 1 2.0 0.0 23 47
- 1.114424 0 1 tcp 1040 ------- 1 0.0 2.0 26 36
+ 1.116691 1 6 tcp 1040 ------- 1 0.0 2.0 24 33
- 1.116691 1 6 tcp 1040 ------- 1 0.0 2.0 24 33
d 1.116695 5 6 tcp 1040 ------- 1 0.0 2.0 24 33
d 1.116695 4 6 tcp 1040 ------- 1 0.0 2.0 24 33
d 1.116695 3 6 tcp 1040 ------- 1 0.0 2.0 24 33
r 1.124424 0 1 tcp 1040 ------- 1 0.0 2.0 25 34
h 1.124424 1 6 tcp 1040 ------- 1 0.0 2.0 25 34
+ 1.128961 2 6 ack 40 ------- 1 2.0 0.0 23 47
- 1.128961 2 6 ack 40 ------- 1 2.0 0.0 23 47
d 1.128965 5 6 ack 40 ------- 1 2.0 0.0 23 47
d 1.128965 4 6 ack 40 ------- 1 2.0 0.0 23 47
d 1.128965 3 6 ack 40 ------- 1 2.0 0.0 23 47
r 1.136695 6 2 tcp 1040 ------- 1 0.0 2.0 24 33
- 1.142157 0 1 tcp 1040 ------- 1 0.0 2.0 27 37
+ 1.144424 1 6 tcp 1040 ------- 1 0.0 2.0 25 34
- 1.144424 1 6 tcp 1040 ------- 1 0.0 2.0 25 34
d 1.144428 5 6 tcp 1040 ------- 1 0.0 2.0 25 34
d 1.144428 4 6 tcp 1040 ------- 1 0.0 2.0 25 34
d 1.144428 3 6 tcp 1040 ------- 1 0.0 2.0 25 34
r 1.148965 6 1 ack 40 ------- 1 2.0 0.0 23 47
+ 1.148965 1 0 ack 40 ------- 1 2.0 0.0 23 47
- 1.148965 1 0 ack 40 ------- 1 2.0 0.0 23 47
r 1.152157 0 1 tcp 1040 ------- 1 0.0 2.0 26 36
h 1.152157 1 6 tcp 1040 ------- 1 0.0 2.0 26 36
r 1.160032 1 0 ack 40 ------- 1 2.0 0.0 23 47
+ 1.160032 0 1 tcp 1040 ------- 1 0.0 2.0 35 48
+ 1.160032 0 1 tcp 1040 ------- 1 0.0 2.0 36 49
+ 1.160032 0 1 tcp 1040 ------- 1 0.0 2.0 37 50
r 1.164428 6 2 tcp 1040 ------- 1 0.0 2.0 25 34
h 1.164428 2 6 ack 40 ------- 1 2.0 0.0 25 51
- 1.169891 0 1 tcp 1040 ------- 1 0.0 2.0 28 38
+ 1.172157 1 6 tcp 1040 ------- 1 0.0 2.0 26 36
- 1.172157 1 6 tcp 1040 ------- 1 0.0 2.0 26 36
d 1.172161 5 6 tcp 1040 ------- 1 0.0 2.0 26 36
d 1.172161 4 6 tcp 1040 ------- 1 0.0 2.0 26 36
d 1.172161 3 6 tcp 1040 ------- 1 0.0 2.0 26 36
r 1.179891 0 1 tcp 1040 ------- 1 0.0 2.0 27 37
h 1.179891 1 6 tcp 1040 ------- 1 0.0 2.0 27 37
+ 1.184428 2 6 ack 40 ------- 1 2.0 0.0 25 51
- 1.184428 2 6 ack 40 ------- 1 2.0 0.0 25 51
d 1.184432 5 6 ack 40 ------- 1 2.0 0.0 25 51
d 1.184432 4 6 ack 40 ------- 1 2.0 0.0 25 51
d 1.184432 3 6 ack 40 ------- 1 2.0 0.0 25 51
r 1.192161 6 2 tcp 1040 ------- 1 0.0 2.0 26 36
- 1.197624 0 1 tcp 1040 ------- 1 0.0 2.0 29 40
+ 1.199891 1 6 tcp 1040 ------- 1 0.0 2.0 27 37
- 1.199891 1 6 tcp 1040 ------- 1 0.0 2.0 27 37
d 1.199895 5 6 tcp 1040 ------- 1 0.0 2.0 27 37
d 1.199895 4 6 tcp 1040 ------- 1 0.0 2.0 27 37
d 1.199895 3 6 tcp 1040 ------- 1 0.0 2.0 27 37
r 1.204432 6 1 ack 40 ------- 1 2.0 0.0 25 51
+ 1.204432 1 0 ack 40 ------- 1 2.0 0.0 25 51
- 1.204432 1 0 ack 40 ------- 1 2.0 0.0 25 51
r 1.207624 0 1 tcp 1040 ------- 1 0.0 2.0 28 38
h 1.207624 1 6 tcp 1040 ------- 1 0.0 2.0 28 38
r 1.215499 1 0 ack 40 ------- 1 2.0 0.0 25 51
+ 1.215499 0 1 tcp 1040 ------- 1 0.0 2.0 38 52
+ 1.215499 0 1 tcp 1040 ------- 1 0.0 2.0 39 53
+ 1.215499 0 1 tcp 1040 ------- 1 0.0 2.0 40 54
r 1.219895 6 2 tcp 1040 ------- 1 0.0 2.0 27 37
h 1.219895 2 6 ack 40 ------- 1 2.0 0.0 27 55
- 1.225357 0 1 tcp 1040 ------- 1 0.0 2.0 30 41
+ 1.227624 1 6 tcp 1040 ------- 1 0.0 2.0 28 38
- 1.227624 1 6 tcp 1040 ------- 1 0.0 2.0 28 38
d 1.227628 5 6 tcp 1040 ------- 1 0.0 2.0 28 38
d 1.227628 4 6 tcp 1040 ------- 1 0.0 2.0 28 38
d 1.227628 3 6 tcp 1040 ------- 1 0.0 2.0 28 38
r 1.235357 0 1 tcp 1040 ------- 1 0.0 2.0 29 40
h 1.235357 1 6 tcp 1040 ------- 1 0.0 2.0 29 40
+ 1.239895 2 6 ack 40 ------- 1 2.0 0.0 27 55
- 1.239895 2 6 ack 40 ------- 1 2.0 0.0 27 55
d 1.239899 5 6 ack 40 ------- 1 2.0 0.0 27 55
d 1.239899 4 6 ack 40 ------- 1 2.0 0.0 27 55
d 1.239899 3 6 ack 40 ------- 1 2.0 0.0 27 55
r 1.247628 6 2 tcp 1040 ------- 1 0.0 2.0 28 38
- 1.253091 0 1 tcp 1040 ------- 1 0.0 2.0 31 42
+ 1.255357 1 6 tcp 1040 ------- 1 0.0 2.0 29 40
- 1.255357 1 6 tcp 1040 ------- 1 0.0 2.0 29 40
d 1.255361 5 6 tcp 1040 ------- 1 0.0 2.0 29 40
d 1.255361 4 6 tcp 1040 ------- 1 0.0 2.0 29 40
d 1.255361 3 6 tcp 1040 ------- 1 0.0 2.0 29 40
r 1.259899 6 1 ack 40 ------- 1 2.0 0.0 27 55
+ 1.259899 1 0 ack 40 ------- 1 2.0 0.0 27 55
- 1.259899 1 0 ack 40 ------- 1 2.0 0.0 27 55
r 1.263091 0 1 tcp 1040 ------- 1 0.0 2.0 30 41
h 1.263091 1 6 tcp 1040 ------- 1 0.0 2.0 30 41
r 1.270965 1 0 ack 40 ------- 1 2.0 0.0 27 55
+ 1.270965 0 1 tcp 1040 ------- 1 0.0 2.0 41 56
+ 1.270965 0 1 tcp 1040 ------- 1 0.0 2.0 42 57
+ 1.270965 0 1 tcp 1040 ------- 1 0.0 2.0 43 58
r 1.275361 6 2 tcp 1040 ------- 1 0.0 2.0 29 40
h 1.275361 2 6 ack 40 ------- 1 2.0 0.0 29 59
- 1.280824 0 1 tcp 1040 ------- 1 0.0 2.0 32 44
+ 1.283091 1 6 tcp 1040 ------- 1 0.0 2.0 30 41
- 1.283091 1 6 tcp 1040 ------- 1 0.0 2.0 30 41
d 1.283095 5 6 tcp 1040 ------- 1 0.0 2.0 30 41
d 1.283095 4 6 tcp 1040 ------- 1 0.0 2.0 30 41
d 1.283095 3 6 tcp 1040 ------- 1 0.0 2.0 30 41
r 1.290824 0 1 tcp 1040 ------- 1 0.0 2.0 31 42
h 1.290824 1 6 tcp 1040 ------- 1 0.0 2.0 31 42
+ 1.295361 2 6 ack 40 ------- 1 2.0 0.0 29 59
- 1.295361 2 6 ack 40 ------- 1 2.0 0.0 29 59
d 1.295365 5 6 ack 40 ------- 1 2.0 0.0 29 59
d 1.295365 4 6 ack 40 ------- 1 2.0 0.0 29 59
d 1.295365 3 6 ack 40 ------- 1 2.0 0.0 29 59
r 1.303095 6 2 tcp 1040 ------- 1 0.0 2.0 30 41
- 1.308557 0 1 tcp 1040 ------- 1 0.0 2.0 33 45
+ 1.310824 1 6 tcp 1040 ------- 1 0.0 2.0 31 42
- 1.310824 1 6 tcp 1040 ------- 1 0.0 2.0 31 42
d 1.310828 5 6 tcp 1040 ------- 1 0.0 2.0 31 42
d 1.310828 4 6 tcp 1040 ------- 1 0.0 2.0 31 42
d 1.310828 3 6 tcp 1040 ------- 1 0.0 2.0 31 42
r 1.315365 6 1 ack 40 ------- 1 2.0 0.0 29 59
+ 1.315365 1 0 ack 40 ------- 1 2.0 0.0 29 59
- 1.315365 1 0 ack 40 ------- 1 2.0 0.0 29 59
r 1.318557 0 1 tcp 1040 ------- 1 0.0 2.0 32 44
h 1.318557 1 6 tcp 1040 ------- 1 0.0 2.0 32 44
r 1.326432 1 0 ack 40 ------- 1 2.0 0.0 29 59
+ 1.326432 0 1 tcp 1040 ------- 1 0.0 2.0 44 60
+ 1.326432 0 1 tcp 1040 ------- 1 0.0 2.0 45 61
+ 1.326432 0 1 tcp 1040 ------- 1 0.0 2.0 46 62
r 1.330828 6 2 tcp 1040 ------- 1 0.0 2.0 31 42
h 1.330828 2 6 ack 40 ------- 1 2.0 0.0 31 63
- 1.336291 0 1 tcp 1040 ------- 1 0.0 2.0 34 46
+ 1.338557 1 6 tcp 1040 ------- 1 0.0 2.0 32 44
- 1.338557 1 6 tcp 1040 ------- 1 0.0 2.0 32 44
d 1.338561 5 6 tcp 1040 ------- 1 0.0 2.0 32 44
d 1.338561 4 6 tcp 1040 ------- 1 0.0 2.0 32 44
d 1.338561 3 6 tcp 1040 ------- 1 0.0 2.0 32 44
r 1.346291 0 1 tcp 1040 ------- 1 0.0 2.0 33 45
h 1.346291 1 6 tcp 1040 ------- 1 0.0 2.0 33 45
+ 1.350828 2 6 ack 40 ------- 1 2.0 0.0 31 63
- 1.350828 2 6 ack 40 ------- 1 2.0 0.0 31 63
d 1.350832 5 6 ack 40 ------- 1 2.0 0.0 31 63
d 1.350832 4 6 ack 40 ------- 1 2.0 0.0 31 63
d 1.350832 3 6 ack 40 ------- 1 2.0 0.0 31 63
r 1.358561 6 2 tcp 1040 ------- 1 0.0 2.0 32 44
- 1.364024 0 1 tcp 1040 ------- 1 0.0 2.0 35 48
+ 1.366291 1 6 tcp 1040 ------- 1 0.0 2.0 33 45
- 1.366291 1 6 tcp 1040 ------- 1 0.0 2.0 33 45
d 1.366295 5 6 tcp 1040 ------- 1 0.0 2.0 33 45
d 1.366295 4 6 tcp 1040 ------- 1 0.0 2.0 33 45
d 1.366295 3 6 tcp 1040 ------- 1 0.0 2.0 33 45
r 1.370832 6 1 ack 40 ------- 1 2.0 0.0 31 63
+ 1.370832 1 0 ack 40 ------- 1 2.0 0.0 31 63
- 1.370832 1 0 ack 40 ------- 1 2.0 0.0 31 63
r 1.374024 0 1 tcp 1040 ------- 1 0.0 2.0 34 46
h 1.374024 1 6 tcp 1040 ------- 1 0.0 2.0 34 46
r 1.381899 1 0 ack 40 ------- 1 2.0 0.0 31 63
+ 1.381899 0 1 tcp 1040 ------- 1 0.0 2.0 47 64
+ 1.381899 0 1 tcp 1040 ------- 1 0.0 2.0 48 65
+ 1.381899 0 1 tcp 1040 ------- 1 0.0 2.0 49 66
d 1.381899 0 1 tcp 1040 ------- 1 0.0 2.0 49 66
r 1.386295 6 2 tcp 1040 ------- 1 0.0 2.0 33 45
h 1.386295 2 6 ack 40 ------- 1 2.0 0.0 33 67
- 1.391757 0 1 tcp 1040 ------- 1 0.0 2.0 36 49
+ 1.394024 1 6 tcp 1040 ------- 1 0.0 2.0 34 46
- 1.394024 1 6 tcp 1040 ------- 1 0.0 2.0 34 46
d 1.394028 5 6 tcp 1040 ------- 1 0.0 2.0 34 46
d 1.394028 4 6 tcp 1040 ------- 1 0.0 2.0 34 46
d 1.394028 3 6 tcp 1040 ------- 1 0.0 2.0 34 46
r 1.401757 0 1 tcp 1040 ------- 1 0.0 2.0 35 48
h 1.401757 1 6 tcp 1040 ------- 1 0.0 2.0 35 48
+ 1.406295 2 6 ack 40 ------- 1 2.0 0.0 33 67
- 1.406295 2 6 ack 40 ------- 1 2.0 0.0 33 67
d 1.406299 5 6 ack 40 ------- 1 2.0 0.0 33 67
d 1.406299 4 6 ack 40 ------- 1 2.0 0.0 33 67
d 1.406299 3 6 ack 40 ------- 1 2.0 0.0 33 67
r 1.414028 6 2 tcp 1040 ------- 1 0.0 2.0 34 46
- 1.419491 0 1 tcp 1040 ------- 1 0.0 2.0 37 50
+ 1.421757 1 6 tcp 1040 ------- 1 0.0 2.0 35 48
- 1.421757 1 6 tcp 1040 ------- 1 0.0 2.0 35 48
d 1.421761 5 6 tcp 1040 ------- 1 0.0 2.0 35 48
d 1.421761 4 6 tcp 1040 ------- 1 0.0 2.0 35 48
d 1.421761 3 6 tcp 1040 ------- 1 0.0 2.0 35 48
r 1.426299 6 1 ack 40 ------- 1 2.0 0.0 33 67
+ 1.426299 1 0 ack 40 ------- 1 2.0 0.0 33 67
- 1.426299 1 0 ack 40 ------- 1 2.0 0.0 33 67
r 1.429491 0 1 tcp 1040 ------- 1 0.0 2.0 36 49
h 1.429491 1 6 tcp 1040 ------- 1 0.0 2.0 36 49
r 1.437365 1 0 ack 40 ------- 1 2.0 0.0 33 67
+ 1.437365 0 1 tcp 1040 ------- 1 0.0 2.0 50 68
+ 1.437365 0 1 tcp 1040 ------- 1 0.0 2.0 51 69
+ 1.437365 0 1 tcp 1040 ------- 1 0.0 2.0 52 70
d 1.437365 0 1 tcp 1040 ------- 1 0.0 2.0 52 70
r 1.441761 6 2 tcp 1040 ------- 1 0.0 2.0 35 48
h 1.441761 2 6 ack 40 ------- 1 2.0 0.0 35 71
- 1.447224 0 1 tcp 1040 ------- 1 0.0 2.0 38 52
+ 1.449491 1 6 tcp 1040 ------- 1 0.0 2.0 36 49
- 1.449491 1 6 tcp 1040 ------- 1 0.0 2.0 36 49
d 1.449495 5 6 tcp 1040 ------- 1 0.0 2.0 36 49
d 1.449495 4 6 tcp 1040 ------- 1 0.0 2.0 36 49
d 1.449495 3 6 tcp 1040 ------- 1 0.0 2.0 36 49
r 1.457224 0 1 tcp 1040 ------- 1 0.0 2.0 37 50
h 1.457224 1 6 tcp 1040 ------- 1 0.0 2.0 37 50
+ 1.461761 2 6 ack 40 ------- 1 2.0 0.0 35 71
- 1.461761 2 6 ack 40 ------- 1 2.0 0.0 35 71
d 1.461765 5 6 ack 40 ------- 1 2.0 0.0 35 71
d 1.461765 4 6 ack 40 ------- 1 2.0 0.0 35 71
d 1.461765 3 6 ack 40 ------- 1 2.0 0.0 35 71
r 1.469495 6 2 tcp 1040 ------- 1 0.0 2.0 36 49
- 1.474957 0 1 tcp 1040 ------- 1 0.0 2.0 39 53
+ 1.477224 1 6 tcp 1040 ------- 1 0.0 2.0 37 50
- 1.477224 1 6 tcp 1040 ------- 1 0.0 2.0 37 50
d 1.477228 5 6 tcp 1040 ------- 1 0.0 2.0 37 50
d 1.477228 4 6 tcp 1040 ------- 1 0.0 2.0 37 50
d 1.477228 3 6 tcp 1040 ------- 1 0.0 2.0 37 50
r 1.481765 6 1 ack 40 ------- 1 2.0 0.0 35 71
+ 1.481765 1 0 ack 40 ------- 1 2.0 0.0 35 71
- 1.481765 1 0 ack 40 ------- 1 2.0 0.0 35 71
r 1.484957 0 1 tcp 1040 ------- 1 0.0 2.0 38 52
h 1.484957 1 6 tcp 1040 ------- 1 0.0 2.0 38 52
r 1.492832 1 0 ack 40 ------- 1 2.0 0.0 35 71
+ 1.492832 0 1 tcp 1040 ------- 1 0.0 2.0 53 72
+ 1.492832 0 1 tcp 1040 ------- 1 0.0 2.0 54 73
+ 1.492832 0 1 tcp 1040 ------- 1 0.0 2.0 55 74
d 1.492832 0 1 tcp 1040 ------- 1 0.0 2.0 55 74
r 1.497228 6 2 tcp 1040 ------- 1 0.0 2.0 37 50
h 1.497228 2 6 ack 40 ------- 1 2.0 0.0 37 75
- 1.502691 0 1 tcp 1040 ------- 1 0.0 2.0 40 54
+ 1.504957 1 6 tcp 1040 ------- 1 0.0 2.0 38 52
- 1.504957 1 6 tcp 1040 ------- 1 0.0 2.0 38 52
d 1.504961 5 6 tcp 1040 ------- 1 0.0 2.0 38 52
d 1.504961 4 6 tcp 1040 ------- 1 0.0 2.0 38 52
d 1.504961 3 6 tcp 1040 ------- 1 0.0 2.0 38 52
r 1.512691 0 1 tcp 1040 ------- 1 0.0 2.0 39 53
h 1.512691 1 6 tcp 1040 ------- 1 0.0 2.0 39 53
+ 1.517228 2 6 ack 40 ------- 1 2.0 0.0 37 75
- 1.517228 2 6 ack 40 ------- 1 2.0 0.0 37 75
d 1.517232 5 6 ack 40 ------- 1 2.0 0.0 37 75
d 1.517232 4 6 ack 40 ------- 1 2.0 0.0 37 75
d 1.517232 3 6 ack 40 ------- 1 2.0 0.0 37 75
r 1.524961 6 2 tcp 1040 ------- 1 0.0 2.0 38 52
- 1.530424 0 1 tcp 1040 ------- 1 0.0 2.0 41 56
+ 1.532691 1 6 tcp 1040 ------- 1 0.0 2.0 39 53
- 1.532691 1 6 tcp 1040 ------- 1 0.0 2.0 39 53
d 1.532695 5 6 tcp 1040 ------- 1 0.0 2.0 39 53
d 1.532695 4 6 tcp 1040 ------- 1 0.0 2.0 39 53
d 1.532695 3 6 tcp 1040 ------- 1 0.0 2.0 39 53
r 1.537232 6 1 ack 40 ------- 1 2.0 0.0 37 75
+ 1.537232 1 0 ack 40 ------- 1 2.0 0.0 37 75
- 1.537232 1 0 ack 40 ------- 1 2.0 0.0 37 75
r 1.540424 0 1 tcp 1040 ------- 1 0.0 2.0 40 54
h 1.540424 1 6 tcp 1040 ------- 1 0.0 2.0 40 54
r 1.548299 1 0 ack 40 ------- 1 2.0 0.0 37 75
+ 1.548299 0 1 tcp 1040 ------- 1 0.0 2.0 56 76
+ 1.548299 0 1 tcp 1040 ------- 1 0.0 2.0 57 77
r 1.552695 6 2 tcp 1040 ------- 1 0.0 2.0 39 53
h 1.552695 2 6 ack 40 ------- 1 2.0 0.0 39 78
- 1.558157 0 1 tcp 1040 ------- 1 0.0 2.0 42 57
+ 1.560424 1 6 tcp 1040 ------- 1 0.0 2.0 40 54
- 1.560424 1 6 tcp 1040 ------- 1 0.0 2.0 40 54
d 1.560428 5 6 tcp 1040 ------- 1 0.0 2.0 40 54
d 1.560428 4 6 tcp 1040 ------- 1 0.0 2.0 40 54
d 1.560428 3 6 tcp 1040 ------- 1 0.0 2.0 40 54
r 1.568157 0 1 tcp 1040 ------- 1 0.0 2.0 41 56
h 1.568157 1 6 tcp 1040 ------- 1 0.0 2.0 41 56
+ 1.572695 2 6 ack 40 ------- 1 2.0 0.0 39 78
- 1.572695 2 6 ack 40 ------- 1 2.0 0.0 39 78
d 1.572699 5 6 ack 40 ------- 1 2.0 0.0 39 78
d 1.572699 4 6 ack 40 ------- 1 2.0 0.0 39 78
d 1.572699 3 6 ack 40 ------- 1 2.0 0.0 39 78